/*--------------------------------*- C++ -*----------------------------------*\
| =========                 |                                                 |
| \\      /  F ield         | OpenFOAM: The Open Source CFD Toolbox           |
|  \\    /   O peration     | Version:  2112                                  |
|   \\  /    A nd           | Website:  www.openfoam.com                      |
|    \\/     M anipulation  |                                                 |
\*---------------------------------------------------------------------------*/
FoamFile
{
    version     2.0;
    format      ascii;
    arch        "LSB;label=32;scalar=64";
    class       volScalarField;
    location    "0.8";
    object      p;
}
// * * * * * * * * * * * * * * * * * * * * * * * * * * * * * * * * * * * * * //

dimensions      [1 -1 -2 0 0 0 0];

internalField   nonuniform List<scalar> 
12013
(
103499.990299
103499.990298
103499.990296
103499.990292
103499.990288
103499.990282
103499.990275
103499.990267
103499.990258
103499.990248
103499.990237
103499.990225
103499.990212
103499.990198
103499.990182
103499.990166
103499.990148
103499.990129
103499.990109
103499.990088
103499.990066
103499.990042
103499.990018
103499.989992
103499.989965
103499.989937
103499.989907
103499.989876
103499.989845
103499.989811
103499.989777
103499.989742
103499.989705
103499.989667
103499.989629
103499.989589
103499.989548
103499.989506
103499.989463
103499.989419
103499.989374
103499.989329
103499.989282
103499.989235
103499.989188
103499.98914
103499.989091
103499.989042
103499.988993
103499.988943
103499.988894
103499.988844
103499.988795
103499.988746
103499.988698
103499.98865
103499.988603
103499.988557
103499.988512
103499.988469
103499.988428
103499.988389
103499.988353
103499.98832
103499.98829
103499.988264
103499.988244
103499.988229
103499.988221
103499.988222
103499.988233
103499.988256
103499.988295
103499.988353
103499.988436
103499.988553
103499.988714
103499.988936
103499.989248
103499.989741
103499.990504
103499.966672
103499.966671
103499.966669
103499.966665
103499.966661
103499.966655
103499.966648
103499.96664
103499.966631
103499.966621
103499.96661
103499.966598
103499.966585
103499.966571
103499.966555
103499.966539
103499.966521
103499.966503
103499.966483
103499.966462
103499.96644
103499.966417
103499.966392
103499.966366
103499.96634
103499.966312
103499.966282
103499.966252
103499.96622
103499.966188
103499.966154
103499.966119
103499.966082
103499.966045
103499.966007
103499.965967
103499.965927
103499.965886
103499.965843
103499.9658
103499.965756
103499.965711
103499.965666
103499.96562
103499.965573
103499.965526
103499.965478
103499.96543
103499.965382
103499.965334
103499.965285
103499.965237
103499.965189
103499.965141
103499.965094
103499.965048
103499.965002
103499.964958
103499.964915
103499.964873
103499.964834
103499.964797
103499.964762
103499.96473
103499.964702
103499.964678
103499.964659
103499.964646
103499.964639
103499.964641
103499.964652
103499.964674
103499.964711
103499.964765
103499.96484
103499.964941
103499.965074
103499.965243
103499.965454
103499.965734
103499.966059
103499.94139
103499.941389
103499.941387
103499.941383
103499.941378
103499.941373
103499.941366
103499.941358
103499.941349
103499.941339
103499.941328
103499.941316
103499.941303
103499.941289
103499.941274
103499.941257
103499.94124
103499.941221
103499.941202
103499.941181
103499.941159
103499.941136
103499.941112
103499.941086
103499.94106
103499.941032
103499.941003
103499.940973
103499.940942
103499.940909
103499.940876
103499.940841
103499.940805
103499.940769
103499.940731
103499.940692
103499.940652
103499.940611
103499.94057
103499.940527
103499.940484
103499.94044
103499.940396
103499.94035
103499.940304
103499.940258
103499.940212
103499.940165
103499.940118
103499.94007
103499.940023
103499.939976
103499.93993
103499.939883
103499.939838
103499.939793
103499.939749
103499.939706
103499.939664
103499.939624
103499.939586
103499.93955
103499.939517
103499.939487
103499.93946
103499.939437
103499.939419
103499.939406
103499.939399
103499.9394
103499.939409
103499.939428
103499.939459
103499.939503
103499.939562
103499.939637
103499.939727
103499.939827
103499.939921
103499.939983
103499.939938
103499.914337
103499.914336
103499.914334
103499.91433
103499.914326
103499.91432
103499.914313
103499.914305
103499.914297
103499.914287
103499.914276
103499.914264
103499.914251
103499.914237
103499.914221
103499.914205
103499.914188
103499.914169
103499.91415
103499.914129
103499.914107
103499.914085
103499.914061
103499.914035
103499.914009
103499.913982
103499.913953
103499.913923
103499.913892
103499.91386
103499.913827
103499.913793
103499.913758
103499.913722
103499.913685
103499.913646
103499.913607
103499.913567
103499.913526
103499.913485
103499.913442
103499.913399
103499.913355
103499.913311
103499.913266
103499.913221
103499.913176
103499.91313
103499.913084
103499.913038
103499.912992
103499.912947
103499.912901
103499.912856
103499.912812
103499.912768
103499.912726
103499.912684
103499.912644
103499.912606
103499.912569
103499.912534
103499.912502
103499.912473
103499.912447
103499.912425
103499.912407
103499.912393
103499.912385
103499.912384
103499.912389
103499.912402
103499.912423
103499.912453
103499.912491
103499.912536
103499.912581
103499.912619
103499.912629
103499.912581
103499.912424
103499.885389
103499.885388
103499.885386
103499.885382
103499.885378
103499.885372
103499.885365
103499.885358
103499.885349
103499.885339
103499.885328
103499.885316
103499.885303
103499.885289
103499.885274
103499.885258
103499.885241
103499.885223
103499.885203
103499.885183
103499.885161
103499.885139
103499.885115
103499.88509
103499.885064
103499.885037
103499.885009
103499.884979
103499.884949
103499.884917
103499.884885
103499.884851
103499.884817
103499.884781
103499.884744
103499.884707
103499.884668
103499.884629
103499.884589
103499.884548
103499.884507
103499.884465
103499.884422
103499.884379
103499.884335
103499.884291
103499.884246
103499.884202
103499.884157
103499.884112
103499.884068
103499.884024
103499.88398
103499.883936
103499.883893
103499.883851
103499.88381
103499.88377
103499.883731
103499.883694
103499.883658
103499.883625
103499.883594
103499.883565
103499.883539
103499.883517
103499.883498
103499.883484
103499.883473
103499.883468
103499.883468
103499.883472
103499.883482
103499.883496
103499.883512
103499.883527
103499.883534
103499.883524
103499.883482
103499.883387
103499.883214
103499.854414
103499.854413
103499.854411
103499.854407
103499.854403
103499.854397
103499.85439
103499.854383
103499.854374
103499.854364
103499.854353
103499.854341
103499.854329
103499.854315
103499.8543
103499.854284
103499.854267
103499.854249
103499.854229
103499.854209
103499.854188
103499.854165
103499.854142
103499.854117
103499.854092
103499.854065
103499.854037
103499.854008
103499.853978
103499.853947
103499.853915
103499.853882
103499.853848
103499.853813
103499.853777
103499.85374
103499.853703
103499.853664
103499.853625
103499.853585
103499.853545
103499.853504
103499.853462
103499.85342
103499.853377
103499.853334
103499.853291
103499.853248
103499.853204
103499.853161
103499.853118
103499.853075
103499.853032
103499.85299
103499.852949
103499.852908
103499.852868
103499.852829
103499.852792
103499.852756
103499.852721
103499.852689
103499.852658
103499.85263
103499.852604
103499.852581
103499.852561
103499.852544
103499.852531
103499.85252
103499.852513
103499.852509
103499.852506
103499.852504
103499.8525
103499.852489
103499.852467
103499.852425
103499.852353
103499.85224
103499.852075
103499.821269
103499.821268
103499.821266
103499.821262
103499.821258
103499.821252
103499.821245
103499.821238
103499.821229
103499.821219
103499.821209
103499.821197
103499.821184
103499.821171
103499.821156
103499.82114
103499.821123
103499.821105
103499.821086
103499.821066
103499.821045
103499.821023
103499.821
103499.820976
103499.82095
103499.820924
103499.820897
103499.820868
103499.820839
103499.820808
103499.820777
103499.820744
103499.820711
103499.820677
103499.820642
103499.820606
103499.820569
103499.820531
103499.820493
103499.820454
103499.820415
103499.820374
103499.820334
103499.820293
103499.820251
103499.82021
103499.820168
103499.820126
103499.820084
103499.820042
103499.82
103499.819959
103499.819917
103499.819877
103499.819837
103499.819797
103499.819759
103499.819721
103499.819685
103499.81965
103499.819616
103499.819584
103499.819554
103499.819525
103499.819499
103499.819475
103499.819453
103499.819433
103499.819416
103499.8194
103499.819386
103499.819372
103499.819358
103499.819341
103499.819319
103499.819289
103499.819246
103499.819185
103499.819099
103499.818983
103499.818833
103499.785802
103499.785801
103499.785799
103499.785796
103499.785791
103499.785786
103499.785779
103499.785772
103499.785763
103499.785753
103499.785743
103499.785731
103499.785719
103499.785705
103499.78569
103499.785675
103499.785658
103499.78564
103499.785622
103499.785602
103499.785581
103499.785559
103499.785536
103499.785513
103499.785488
103499.785462
103499.785435
103499.785407
103499.785378
103499.785348
103499.785317
103499.785286
103499.785253
103499.78522
103499.785185
103499.78515
103499.785114
103499.785078
103499.78504
103499.785003
103499.784964
103499.784925
103499.784886
103499.784846
103499.784806
103499.784765
103499.784725
103499.784684
103499.784644
103499.784603
103499.784563
103499.784523
103499.784483
103499.784444
103499.784405
103499.784367
103499.784329
103499.784293
103499.784258
103499.784224
103499.784191
103499.784159
103499.784129
103499.7841
103499.784073
103499.784047
103499.784023
103499.784
103499.783978
103499.783957
103499.783935
103499.783913
103499.783888
103499.783859
103499.783824
103499.783781
103499.783725
103499.783653
103499.783563
103499.783451
103499.783317
103499.747852
103499.747851
103499.747849
103499.747845
103499.747841
103499.747835
103499.747829
103499.747821
103499.747813
103499.747803
103499.747793
103499.747781
103499.747769
103499.747755
103499.747741
103499.747726
103499.747709
103499.747692
103499.747673
103499.747654
103499.747633
103499.747612
103499.747589
103499.747566
103499.747542
103499.747516
103499.74749
103499.747462
103499.747434
103499.747405
103499.747375
103499.747344
103499.747312
103499.747279
103499.747246
103499.747212
103499.747177
103499.747141
103499.747105
103499.747068
103499.747031
103499.746993
103499.746955
103499.746917
103499.746878
103499.746839
103499.7468
103499.746761
103499.746721
103499.746682
103499.746643
103499.746605
103499.746566
103499.746528
103499.746491
103499.746454
103499.746418
103499.746383
103499.746348
103499.746315
103499.746282
103499.746251
103499.746221
103499.746191
103499.746163
103499.746135
103499.746109
103499.746082
103499.746056
103499.74603
103499.746002
103499.745972
103499.745939
103499.745901
103499.745857
103499.745804
103499.745741
103499.745665
103499.745576
103499.745471
103499.745352
103499.707243
103499.707242
103499.70724
103499.707236
103499.707232
103499.707227
103499.70722
103499.707213
103499.707204
103499.707195
103499.707185
103499.707173
103499.707161
103499.707148
103499.707134
103499.707118
103499.707102
103499.707085
103499.707067
103499.707048
103499.707028
103499.707007
103499.706985
103499.706962
103499.706938
103499.706913
103499.706887
103499.706861
103499.706833
103499.706804
103499.706775
103499.706745
103499.706714
103499.706682
103499.70665
103499.706617
103499.706583
103499.706548
103499.706513
103499.706478
103499.706442
103499.706405
103499.706368
103499.706331
103499.706294
103499.706256
103499.706219
103499.706181
103499.706143
103499.706106
103499.706068
103499.706031
103499.705994
103499.705957
103499.705921
103499.705886
103499.705851
103499.705816
103499.705783
103499.70575
103499.705718
103499.705686
103499.705656
103499.705625
103499.705596
103499.705567
103499.705537
103499.705508
103499.705478
103499.705447
103499.705414
103499.705378
103499.705338
103499.705294
103499.705244
103499.705186
103499.70512
103499.705045
103499.704959
103499.704863
103499.704757
103499.66379
103499.663789
103499.663787
103499.663784
103499.663779
103499.663774
103499.663767
103499.66376
103499.663752
103499.663743
103499.663732
103499.663721
103499.663709
103499.663696
103499.663682
103499.663667
103499.663651
103499.663635
103499.663617
103499.663598
103499.663578
103499.663558
103499.663536
103499.663514
103499.663491
103499.663466
103499.663441
103499.663415
103499.663388
103499.663361
103499.663332
103499.663303
103499.663273
103499.663242
103499.663211
103499.663178
103499.663146
103499.663112
103499.663079
103499.663044
103499.66301
103499.662974
103499.662939
103499.662903
103499.662867
103499.662831
103499.662795
103499.662759
103499.662723
103499.662687
103499.662651
103499.662615
103499.66258
103499.662544
103499.66251
103499.662475
103499.662441
103499.662408
103499.662375
103499.662343
103499.662311
103499.662279
103499.662248
103499.662217
103499.662186
103499.662155
103499.662124
103499.662092
103499.662059
103499.662024
103499.661987
103499.661947
103499.661903
103499.661855
103499.661801
103499.661742
103499.661676
103499.661603
103499.661522
103499.661434
103499.66134
103499.617293
103499.617292
103499.61729
103499.617287
103499.617283
103499.617278
103499.617271
103499.617264
103499.617256
103499.617247
103499.617237
103499.617226
103499.617214
103499.617201
103499.617188
103499.617173
103499.617157
103499.617141
103499.617123
103499.617105
103499.617086
103499.617066
103499.617045
103499.617023
103499.617
103499.616977
103499.616952
103499.616927
103499.616901
103499.616874
103499.616847
103499.616818
103499.616789
103499.61676
103499.616729
103499.616698
103499.616667
103499.616635
103499.616602
103499.616569
103499.616536
103499.616502
103499.616468
103499.616434
103499.6164
103499.616365
103499.616331
103499.616296
103499.616261
103499.616227
103499.616192
103499.616158
103499.616124
103499.61609
103499.616057
103499.616024
103499.615991
103499.615958
103499.615926
103499.615894
103499.615862
103499.615831
103499.615799
103499.615768
103499.615736
103499.615703
103499.61567
103499.615636
103499.6156
103499.615563
103499.615523
103499.61548
103499.615434
103499.615384
103499.61533
103499.615271
103499.615207
103499.615137
103499.615062
103499.614982
103499.614898
103499.56754
103499.567539
103499.567537
103499.567534
103499.56753
103499.567525
103499.567518
103499.567511
103499.567503
103499.567495
103499.567485
103499.567474
103499.567462
103499.56745
103499.567436
103499.567422
103499.567407
103499.567391
103499.567374
103499.567356
103499.567337
103499.567318
103499.567298
103499.567276
103499.567254
103499.567231
103499.567208
103499.567183
103499.567158
103499.567132
103499.567106
103499.567078
103499.56705
103499.567022
103499.566993
103499.566963
103499.566933
103499.566902
103499.566871
103499.566839
103499.566808
103499.566775
103499.566743
103499.56671
103499.566678
103499.566645
103499.566612
103499.566579
103499.566546
103499.566513
103499.56648
103499.566447
103499.566414
103499.566382
103499.56635
103499.566318
103499.566286
103499.566254
103499.566223
103499.566191
103499.56616
103499.566128
103499.566096
103499.566064
103499.566032
103499.565998
103499.565964
103499.565929
103499.565891
103499.565852
103499.565811
103499.565767
103499.56572
103499.56567
103499.565617
103499.565559
103499.565498
103499.565433
103499.565364
103499.565292
103499.565216
103499.514302
103499.514301
103499.514299
103499.514296
103499.514292
103499.514287
103499.514281
103499.514274
103499.514266
103499.514258
103499.514248
103499.514238
103499.514226
103499.514214
103499.514201
103499.514187
103499.514172
103499.514157
103499.51414
103499.514123
103499.514105
103499.514086
103499.514066
103499.514046
103499.514024
103499.514002
103499.513979
103499.513956
103499.513932
103499.513907
103499.513881
103499.513855
103499.513828
103499.513801
103499.513773
103499.513745
103499.513716
103499.513687
103499.513657
103499.513627
103499.513597
103499.513566
103499.513535
103499.513504
103499.513473
103499.513442
103499.51341
103499.513379
103499.513348
103499.513316
103499.513285
103499.513254
103499.513223
103499.513192
103499.513161
103499.51313
103499.513099
103499.513068
103499.513037
103499.513007
103499.512976
103499.512944
103499.512913
103499.51288
103499.512847
103499.512814
103499.512779
103499.512742
103499.512705
103499.512665
103499.512624
103499.51258
103499.512533
103499.512484
103499.512433
103499.512378
103499.512321
103499.51226
103499.512198
103499.512132
103499.512065
103499.457335
103499.457335
103499.457333
103499.45733
103499.457326
103499.457321
103499.457315
103499.457308
103499.4573
103499.457292
103499.457283
103499.457272
103499.457261
103499.45725
103499.457237
103499.457223
103499.457209
103499.457194
103499.457178
103499.457161
103499.457144
103499.457126
103499.457107
103499.457087
103499.457066
103499.457045
103499.457023
103499.457001
103499.456978
103499.456954
103499.456929
103499.456904
103499.456879
103499.456853
103499.456826
103499.456799
103499.456772
103499.456744
103499.456716
103499.456688
103499.456659
103499.45663
103499.456601
103499.456572
103499.456542
103499.456513
103499.456483
103499.456453
103499.456424
103499.456394
103499.456364
103499.456335
103499.456305
103499.456275
103499.456246
103499.456216
103499.456186
103499.456157
103499.456127
103499.456097
103499.456066
103499.456035
103499.456004
103499.455972
103499.455939
103499.455905
103499.45587
103499.455834
103499.455797
103499.455758
103499.455717
103499.455674
103499.455629
103499.455582
103499.455533
103499.455482
103499.455429
103499.455374
103499.455316
103499.455258
103499.455197
103499.396379
103499.396378
103499.396376
103499.396373
103499.396369
103499.396364
103499.396359
103499.396352
103499.396345
103499.396336
103499.396327
103499.396318
103499.396307
103499.396295
103499.396283
103499.39627
103499.396256
103499.396242
103499.396227
103499.39621
103499.396194
103499.396176
103499.396158
103499.396139
103499.39612
103499.396099
103499.396078
103499.396057
103499.396035
103499.396012
103499.395989
103499.395965
103499.395941
103499.395917
103499.395891
103499.395866
103499.39584
103499.395814
103499.395787
103499.395761
103499.395734
103499.395706
103499.395679
103499.395652
103499.395624
103499.395596
103499.395568
103499.39554
103499.395512
103499.395484
103499.395456
103499.395428
103499.3954
103499.395372
103499.395344
103499.395316
103499.395287
103499.395259
103499.39523
103499.3952
103499.395171
103499.395141
103499.39511
103499.395079
103499.395047
103499.395013
103499.394979
103499.394944
103499.394907
103499.394869
103499.39483
103499.394789
103499.394747
103499.394702
103499.394657
103499.394609
103499.39456
103499.39451
103499.394459
103499.394406
103499.394352
103499.331152
103499.331152
103499.33115
103499.331147
103499.331143
103499.331139
103499.331133
103499.331127
103499.33112
103499.331112
103499.331103
103499.331094
103499.331083
103499.331072
103499.331061
103499.331048
103499.331035
103499.331021
103499.331006
103499.330991
103499.330975
103499.330958
103499.330941
103499.330923
103499.330904
103499.330885
103499.330865
103499.330845
103499.330824
103499.330803
103499.330781
103499.330759
103499.330736
103499.330713
103499.330689
103499.330665
103499.330641
103499.330616
103499.330592
103499.330567
103499.330541
103499.330516
103499.33049
103499.330465
103499.330439
103499.330413
103499.330387
103499.330361
103499.330335
103499.330308
103499.330282
103499.330256
103499.330229
103499.330203
103499.330176
103499.330149
103499.330122
103499.330095
103499.330067
103499.330039
103499.330011
103499.329982
103499.329952
103499.329922
103499.329891
103499.329859
103499.329826
103499.329792
103499.329757
103499.329721
103499.329684
103499.329645
103499.329605
103499.329564
103499.329522
103499.329479
103499.329435
103499.329389
103499.329343
103499.329296
103499.329248
103499.261358
103499.261357
103499.261355
103499.261353
103499.261349
103499.261345
103499.261339
103499.261333
103499.261326
103499.261319
103499.261311
103499.261301
103499.261292
103499.261281
103499.26127
103499.261258
103499.261245
103499.261232
103499.261218
103499.261204
103499.261188
103499.261173
103499.261156
103499.261139
103499.261122
103499.261104
103499.261085
103499.261066
103499.261046
103499.261026
103499.261006
103499.260985
103499.260964
103499.260942
103499.26092
103499.260898
103499.260875
103499.260853
103499.26083
103499.260806
103499.260783
103499.26076
103499.260736
103499.260712
103499.260688
103499.260664
103499.26064
103499.260616
103499.260592
103499.260567
103499.260543
103499.260518
103499.260493
103499.260469
103499.260443
103499.260418
103499.260393
103499.260367
103499.260341
103499.260314
103499.260287
103499.260259
103499.260231
103499.260203
103499.260173
103499.260143
103499.260112
103499.26008
103499.260047
103499.260013
103499.259978
103499.259943
103499.259906
103499.259869
103499.259831
103499.259791
103499.259751
103499.259711
103499.25967
103499.259628
103499.259586
103499.186675
103499.186674
103499.186673
103499.18667
103499.186667
103499.186662
103499.186657
103499.186652
103499.186645
103499.186638
103499.18663
103499.186621
103499.186612
103499.186602
103499.186591
103499.18658
103499.186568
103499.186556
103499.186542
103499.186529
103499.186514
103499.1865
103499.186484
103499.186468
103499.186452
103499.186435
103499.186418
103499.1864
103499.186382
103499.186363
103499.186344
103499.186325
103499.186305
103499.186285
103499.186265
103499.186244
103499.186224
103499.186203
103499.186182
103499.18616
103499.186139
103499.186117
103499.186096
103499.186074
103499.186052
103499.18603
103499.186008
103499.185985
103499.185963
103499.185941
103499.185918
103499.185895
103499.185872
103499.185849
103499.185826
103499.185803
103499.185779
103499.185755
103499.18573
103499.185705
103499.18568
103499.185654
103499.185628
103499.185601
103499.185574
103499.185545
103499.185517
103499.185487
103499.185457
103499.185426
103499.185394
103499.185362
103499.185328
103499.185295
103499.18526
103499.185225
103499.18519
103499.185154
103499.185118
103499.185081
103499.185044
103499.106761
103499.106761
103499.106759
103499.106757
103499.106753
103499.106749
103499.106745
103499.106739
103499.106733
103499.106726
103499.106719
103499.106711
103499.106702
103499.106692
103499.106682
103499.106672
103499.106661
103499.106649
103499.106637
103499.106624
103499.106611
103499.106597
103499.106583
103499.106568
103499.106553
103499.106537
103499.106521
103499.106505
103499.106488
103499.106471
103499.106453
103499.106436
103499.106418
103499.1064
103499.106381
103499.106362
103499.106344
103499.106325
103499.106305
103499.106286
103499.106267
103499.106247
103499.106227
103499.106207
103499.106188
103499.106168
103499.106147
103499.106127
103499.106107
103499.106087
103499.106066
103499.106045
103499.106024
103499.106003
103499.105982
103499.10596
103499.105939
103499.105916
103499.105894
103499.105871
103499.105848
103499.105824
103499.1058
103499.105775
103499.10575
103499.105724
103499.105698
103499.105671
103499.105644
103499.105616
103499.105587
103499.105558
103499.105529
103499.105499
103499.105468
103499.105438
103499.105406
103499.105375
103499.105343
103499.105312
103499.10528
103499.021251
103499.02125
103499.021249
103499.021246
103499.021243
103499.021239
103499.021235
103499.02123
103499.021224
103499.021218
103499.021211
103499.021203
103499.021195
103499.021186
103499.021177
103499.021167
103499.021157
103499.021146
103499.021135
103499.021123
103499.021111
103499.021098
103499.021085
103499.021071
103499.021057
103499.021043
103499.021029
103499.021014
103499.020999
103499.020983
103499.020967
103499.020951
103499.020935
103499.020919
103499.020902
103499.020885
103499.020868
103499.020851
103499.020834
103499.020817
103499.020799
103499.020782
103499.020764
103499.020747
103499.020729
103499.020711
103499.020693
103499.020675
103499.020657
103499.020639
103499.02062
103499.020601
103499.020583
103499.020564
103499.020545
103499.020525
103499.020505
103499.020485
103499.020465
103499.020444
103499.020423
103499.020402
103499.02038
103499.020358
103499.020336
103499.020313
103499.020289
103499.020265
103499.020241
103499.020216
103499.020191
103499.020166
103499.02014
103499.020114
103499.020087
103499.02006
103499.020034
103499.020006
103499.019979
103499.019952
103499.019925
103498.929751
103498.92975
103498.929749
103498.929747
103498.929744
103498.92974
103498.929736
103498.929732
103498.929726
103498.92972
103498.929714
103498.929707
103498.929699
103498.929691
103498.929683
103498.929674
103498.929665
103498.929655
103498.929644
103498.929634
103498.929622
103498.929611
103498.929599
103498.929587
103498.929575
103498.929562
103498.929549
103498.929535
103498.929522
103498.929508
103498.929494
103498.92948
103498.929465
103498.929451
103498.929436
103498.929421
103498.929406
103498.929391
103498.929376
103498.929361
103498.929346
103498.92933
103498.929315
103498.929299
103498.929284
103498.929268
103498.929252
103498.929237
103498.929221
103498.929205
103498.929188
103498.929172
103498.929155
103498.929139
103498.929122
103498.929105
103498.929087
103498.92907
103498.929052
103498.929034
103498.929015
103498.928996
103498.928977
103498.928958
103498.928938
103498.928918
103498.928897
103498.928877
103498.928855
103498.928834
103498.928812
103498.928791
103498.928768
103498.928746
103498.928724
103498.928701
103498.928678
103498.928655
103498.928632
103498.928609
103498.928586
103498.831843
103498.831842
103498.831841
103498.831839
103498.831836
103498.831833
103498.831829
103498.831825
103498.83182
103498.831815
103498.831809
103498.831803
103498.831796
103498.831789
103498.831781
103498.831773
103498.831764
103498.831755
103498.831746
103498.831737
103498.831727
103498.831717
103498.831706
103498.831695
103498.831684
103498.831673
103498.831661
103498.83165
103498.831638
103498.831626
103498.831614
103498.831601
103498.831589
103498.831576
103498.831564
103498.831551
103498.831538
103498.831525
103498.831512
103498.831499
103498.831486
103498.831473
103498.83146
103498.831446
103498.831433
103498.831419
103498.831406
103498.831392
103498.831379
103498.831365
103498.831351
103498.831337
103498.831323
103498.831309
103498.831294
103498.831279
103498.831264
103498.831249
103498.831234
103498.831218
103498.831203
103498.831186
103498.83117
103498.831154
103498.831137
103498.83112
103498.831102
103498.831085
103498.831067
103498.831049
103498.831031
103498.831013
103498.830994
103498.830976
103498.830957
103498.830938
103498.830919
103498.8309
103498.830881
103498.830862
103498.830843
103498.727077
103498.727076
103498.727075
103498.727073
103498.727071
103498.727068
103498.727065
103498.727061
103498.727057
103498.727052
103498.727047
103498.727041
103498.727035
103498.727029
103498.727022
103498.727015
103498.727007
103498.727
103498.726991
103498.726983
103498.726975
103498.726966
103498.726957
103498.726947
103498.726938
103498.726928
103498.726918
103498.726908
103498.726898
103498.726888
103498.726878
103498.726867
103498.726857
103498.726846
103498.726835
103498.726825
103498.726814
103498.726803
103498.726792
103498.726782
103498.726771
103498.72676
103498.726749
103498.726738
103498.726727
103498.726716
103498.726705
103498.726693
103498.726682
103498.726671
103498.726659
103498.726648
103498.726636
103498.726624
103498.726612
103498.7266
103498.726588
103498.726575
103498.726562
103498.72655
103498.726537
103498.726523
103498.72651
103498.726496
103498.726483
103498.726469
103498.726455
103498.72644
103498.726426
103498.726411
103498.726396
103498.726382
103498.726367
103498.726352
103498.726337
103498.726322
103498.726306
103498.726291
103498.726276
103498.726261
103498.726246
103498.614973
103498.614973
103498.614972
103498.61497
103498.614968
103498.614966
103498.614963
103498.61496
103498.614956
103498.614952
103498.614947
103498.614942
103498.614937
103498.614932
103498.614926
103498.61492
103498.614913
103498.614907
103498.6149
103498.614893
103498.614886
103498.614878
103498.61487
103498.614863
103498.614855
103498.614847
103498.614839
103498.61483
103498.614822
103498.614814
103498.614805
103498.614797
103498.614788
103498.61478
103498.614771
103498.614763
103498.614754
103498.614746
103498.614737
103498.614728
103498.61472
103498.614711
103498.614702
103498.614694
103498.614685
103498.614676
103498.614668
103498.614659
103498.61465
103498.614641
103498.614632
103498.614623
103498.614614
103498.614604
103498.614595
103498.614586
103498.614576
103498.614566
103498.614556
103498.614546
103498.614536
103498.614526
103498.614515
103498.614505
103498.614494
103498.614483
103498.614472
103498.614461
103498.61445
103498.614439
103498.614427
103498.614416
103498.614404
103498.614393
103498.614381
103498.61437
103498.614358
103498.614347
103498.614335
103498.614324
103498.614312
103498.495018
103498.495018
103498.495017
103498.495016
103498.495014
103498.495012
103498.495009
103498.495007
103498.495003
103498.495
103498.494996
103498.494992
103498.494988
103498.494983
103498.494978
103498.494973
103498.494968
103498.494963
103498.494957
103498.494952
103498.494946
103498.49494
103498.494934
103498.494927
103498.494921
103498.494915
103498.494908
103498.494902
103498.494896
103498.494889
103498.494883
103498.494876
103498.49487
103498.494863
103498.494857
103498.49485
103498.494844
103498.494838
103498.494831
103498.494825
103498.494819
103498.494812
103498.494806
103498.4948
103498.494793
103498.494787
103498.494781
103498.494774
103498.494768
103498.494762
103498.494755
103498.494749
103498.494742
103498.494735
103498.494728
103498.494722
103498.494715
103498.494708
103498.4947
103498.494693
103498.494686
103498.494679
103498.494671
103498.494663
103498.494656
103498.494648
103498.49464
103498.494632
103498.494624