/*--------------------------------*- C++ -*----------------------------------*\
| =========                 |                                                 |
| \\      /  F ield         | OpenFOAM: The Open Source CFD Toolbox           |
|  \\    /   O peration     | Version:  2112                                  |
|   \\  /    A nd           | Website:  www.openfoam.com                      |
|    \\/     M anipulation  |                                                 |
\*---------------------------------------------------------------------------*/
FoamFile
{
    version     2.0;
    format      ascii;
    arch        "LSB;label=32;scalar=64";
    class       volScalarField;
    location    "0.8";
    object      p_rgh;
}
// * * * * * * * * * * * * * * * * * * * * * * * * * * * * * * * * * * * * * //

dimensions      [1 -1 -2 0 0 0 0];

internalField   nonuniform List<scalar> 
12013
(
103500.001713
103500.001712
103500.00171
103500.001706
103500.001702
103500.001696
103500.001689
103500.001681
103500.001672
103500.001662
103500.001651
103500.001639
103500.001626
103500.001611
103500.001596
103500.001579
103500.001562
103500.001543
103500.001523
103500.001502
103500.001479
103500.001456
103500.001431
103500.001405
103500.001378
103500.00135
103500.00132
103500.001289
103500.001257
103500.001224
103500.001189
103500.001154
103500.001117
103500.001079
103500.00104
103500.001
103500.000959
103500.000916
103500.000873
103500.000829
103500.000784
103500.000738
103500.000691
103500.000644
103500.000596
103500.000547
103500.000498
103500.000448
103500.000399
103500.000349
103500.000299
103500.000249
103500.000199
103500.000149
103500.0001
103500.000051
103500.000004
103499.999957
103499.999912
103499.999868
103499.999826
103499.999786
103499.999749
103499.999715
103499.999684
103499.999657
103499.999636
103499.99962
103499.999611
103499.99961
103499.99962
103499.999642
103499.999679
103499.999735
103499.999817
103499.999932
103500.000091
103500.000311
103500.000621
103500.001111
103500.00187
103500.001713
103500.001712
103500.00171
103500.001706
103500.001702
103500.001696
103500.001689
103500.001681
103500.001672
103500.001662
103500.001651
103500.001639
103500.001626
103500.001611
103500.001596
103500.001579
103500.001562
103500.001543
103500.001523
103500.001502
103500.001479
103500.001456
103500.001431
103500.001405
103500.001378
103500.00135
103500.00132
103500.001289
103500.001257
103500.001224
103500.00119
103500.001154
103500.001117
103500.001079
103500.00104
103500.001
103500.000959
103500.000917
103500.000873
103500.000829
103500.000784
103500.000738
103500.000691
103500.000644
103500.000596
103500.000547
103500.000498
103500.000449
103500.000399
103500.000349
103500.000299
103500.000249
103500.000199
103500.000149
103500.0001
103500.000051
103500.000004
103499.999957
103499.999911
103499.999868
103499.999825
103499.999785
103499.999748
103499.999713
103499.999682
103499.999655
103499.999632
103499.999615
103499.999605
103499.999603
103499.99961
103499.999628
103499.999661
103499.99971
103499.99978
103499.999876
103500.000003
103500.000166
103500.000371
103500.000643
103500.000959
103500.001713
103500.001712
103500.00171
103500.001706
103500.001702
103500.001696
103500.001689
103500.001681
103500.001672
103500.001662
103500.001651
103500.001639
103500.001626
103500.001612
103500.001596
103500.00158
103500.001562
103500.001543
103500.001523
103500.001502
103500.00148
103500.001456
103500.001431
103500.001406
103500.001378
103500.00135
103500.001321
103500.00129
103500.001258
103500.001225
103500.00119
103500.001154
103500.001118
103500.00108
103500.001041
103500.001001
103500.000959
103500.000917
103500.000874
103500.00083
103500.000785
103500.000739
103500.000692
103500.000645
103500.000597
103500.000548
103500.000499
103500.000449
103500.0004
103500.00035
103500.000299
103500.000249
103500.000199
103500.000149
103500.0001
103500.000051
103500.000004
103499.999957
103499.999911
103499.999867
103499.999824
103499.999783
103499.999745
103499.99971
103499.999678
103499.999649
103499.999625
103499.999607
103499.999594
103499.999588
103499.99959
103499.999602
103499.999626
103499.999662
103499.999712
103499.999778
103499.999859
103499.999949
103500.000033
103500.000084
103500.000026
103500.001713
103500.001712
103500.00171
103500.001706
103500.001702
103500.001696
103500.001689
103500.001681
103500.001673
103500.001663
103500.001651
103500.001639
103500.001626
103500.001612
103500.001596
103500.00158
103500.001562
103500.001543
103500.001524
103500.001502
103500.00148
103500.001457
103500.001432
103500.001406
103500.001379
103500.001351
103500.001321
103500.00129
103500.001258
103500.001225
103500.001191
103500.001155
103500.001119
103500.001081
103500.001042
103500.001002
103500.00096
103500.000918
103500.000875
103500.000831
103500.000786
103500.00074
103500.000693
103500.000646
103500.000598
103500.000549
103500.0005
103500.00045
103500.000401
103500.00035
103500.0003
103500.00025
103500.0002
103500.00015
103500.0001
103500.000052
103500.000003
103499.999956
103499.99991
103499.999865
103499.999822
103499.99978
103499.999741
103499.999705
103499.999671
103499.999641
103499.999615
103499.999593
103499.999576
103499.999565
103499.999561
103499.999564
103499.999574
103499.999593
103499.99962
103499.999652
103499.999685
103499.999709
103499.999706
103499.999643
103499.999473
103500.001714
103500.001713
103500.00171
103500.001707
103500.001702
103500.001696
103500.00169
103500.001682
103500.001673
103500.001663
103500.001652
103500.00164
103500.001627
103500.001612
103500.001597
103500.00158
103500.001563
103500.001544
103500.001524
103500.001503
103500.001481
103500.001457
103500.001433
103500.001407
103500.00138
103500.001352
103500.001322
103500.001291
103500.001259
103500.001226
103500.001192
103500.001157
103500.00112
103500.001082
103500.001043
103500.001003
103500.000962
103500.00092
103500.000877
103500.000832
103500.000787
103500.000742
103500.000695
103500.000647
103500.000599
103500.000551
103500.000502
103500.000452
103500.000402
103500.000352
103500.000302
103500.000251
103500.000201
103500.000151
103500.000101
103500.000052
103500.000003
103499.999955
103499.999908
103499.999863
103499.999819
103499.999776
103499.999736
103499.999698
103499.999662
103499.999629
103499.9996
103499.999574
103499.999552
103499.999534
103499.999522
103499.999513
103499.999509
103499.999509
103499.99951
103499.99951
103499.999502
103499.999476
103499.999417
103499.999306
103499.999117
103500.001714
103500.001713
103500.001711
103500.001707
103500.001702
103500.001697
103500.00169
103500.001682
103500.001673
103500.001663
103500.001652
103500.00164
103500.001627
103500.001613
103500.001597
103500.001581
103500.001563
103500.001545
103500.001525
103500.001504
103500.001482
103500.001458
103500.001434
103500.001408
103500.001381
103500.001353
103500.001323
103500.001293
103500.001261
103500.001228
103500.001194
103500.001158
103500.001122
103500.001084
103500.001045
103500.001005
103500.000964
103500.000922
103500.000879
103500.000835
103500.00079
103500.000744
103500.000697
103500.00065
103500.000602
103500.000553
103500.000504
103500.000454
103500.000404
103500.000354
103500.000303
103500.000253
103500.000202
103500.000152
103500.000102
103500.000052
103500.000003
103499.999954
103499.999907
103499.99986
103499.999815
103499.999771
103499.999729
103499.999688
103499.99965
103499.999614
103499.999581
103499.99955
103499.999522
103499.999497
103499.999474
103499.999454
103499.999435
103499.999416
103499.999393
103499.999365
103499.999324
103499.999264
103499.999174
103499.999043
103499.99886
103500.001714
103500.001713
103500.001711
103500.001708
103500.001703
103500.001697
103500.00169
103500.001683
103500.001674
103500.001664
103500.001653
103500.001641
103500.001628
103500.001614
103500.001598
103500.001582
103500.001564
103500.001546
103500.001526
103500.001505
103500.001483
103500.00146
103500.001435
103500.001409
103500.001383
103500.001354
103500.001325
103500.001295
103500.001263
103500.00123
103500.001196
103500.00116
103500.001124
103500.001086
103500.001047
103500.001007
103500.000967
103500.000924
103500.000881
103500.000837
103500.000793
103500.000747
103500.0007
103500.000653
103500.000605
103500.000556
103500.000507
103500.000457
103500.000407
103500.000356
103500.000306
103500.000255
103500.000204
103500.000153
103500.000103
103500.000052
103500.000003
103499.999953
103499.999905
103499.999857
103499.99981
103499.999765
103499.99972
103499.999677
103499.999636
103499.999596
103499.999558
103499.999522
103499.999487
103499.999454
103499.999421
103499.999389
103499.999355
103499.999318
103499.999277
103499.999226
103499.999162
103499.999081
103499.998974
103499.998838
103499.998668
103500.001715
103500.001714
103500.001712
103500.001708
103500.001703
103500.001698
103500.001691
103500.001683
103500.001675
103500.001665
103500.001654
103500.001642
103500.001629
103500.001615
103500.001599
103500.001583
103500.001566
103500.001547
103500.001527
103500.001507
103500.001485
103500.001461
103500.001437
103500.001411
103500.001385
103500.001357
103500.001327
103500.001297
103500.001265
103500.001232
103500.001198
103500.001163
103500.001127
103500.001089
103500.001051
103500.001011
103500.00097
103500.000928
103500.000885
103500.000841
103500.000796
103500.000751
103500.000704
103500.000657
103500.000609
103500.00056
103500.000511
103500.000461
103500.00041
103500.00036
103500.000309
103500.000258
103500.000207
103500.000155
103500.000104
103500.000053
103500.000003
103499.999952
103499.999902
103499.999853
103499.999805
103499.999757
103499.99971
103499.999665
103499.99962
103499.999576
103499.999533
103499.999491
103499.999449
103499.999407
103499.999365
103499.999321
103499.999274
103499.999223
103499.999166
103499.999099
103499.999021
103499.998927
103499.998814
103499.99868
103499.998525
103500.001716
103500.001715
103500.001712
103500.001709
103500.001704
103500.001699
103500.001692
103500.001684
103500.001675
103500.001666
103500.001655
103500.001643
103500.00163
103500.001616
103500.001601
103500.001584
103500.001567
103500.001549
103500.001529
103500.001508
103500.001486
103500.001463
103500.001439
103500.001414
103500.001387
103500.001359
103500.00133
103500.0013
103500.001268
103500.001236
103500.001202
103500.001167
103500.001131
103500.001093
103500.001055
103500.001015
103500.000974
103500.000932
103500.00089
103500.000846
103500.000801
103500.000755
103500.000709
103500.000662
103500.000613
103500.000565
103500.000515
103500.000465
103500.000415
103500.000364
103500.000313
103500.000262
103500.00021
103500.000158
103500.000106
103500.000055
103500.000003
103499.999951
103499.9999
103499.99985
103499.999799
103499.999749
103499.9997
103499.999651
103499.999602
103499.999554
103499.999506
103499.999458
103499.999409
103499.99936
103499.999308
103499.999255
103499.999197
103499.999135
103499.999066
103499.998988
103499.9989
103499.998801
103499.998687
103499.998559
103499.998417
103500.001716
103500.001716
103500.001713
103500.00171
103500.001705
103500.0017
103500.001693
103500.001685
103500.001677
103500.001667
103500.001656
103500.001644
103500.001631
103500.001617
103500.001602
103500.001586
103500.001569
103500.001551
103500.001531
103500.001511
103500.001489
103500.001466
103500.001442
103500.001417
103500.00139
103500.001362
103500.001334
103500.001304
103500.001272
103500.00124
103500.001206
103500.001171
103500.001135
103500.001098
103500.001059
103500.00102
103500.000979
103500.000938
103500.000895
103500.000851
103500.000807
103500.000761
103500.000715
103500.000668
103500.00062
103500.000571
103500.000521
103500.000471
103500.000421
103500.00037
103500.000318
103500.000266
103500.000214
103500.000162
103500.000109
103500.000057
103500.000004
103499.999951
103499.999899
103499.999846
103499.999794
103499.999741
103499.999689
103499.999637
103499.999585
103499.999532
103499.999479
103499.999425
103499.99937
103499.999314
103499.999255
103499.999193
103499.999127
103499.999056
103499.998979
103499.998894
103499.998802
103499.9987
103499.998589
103499.998468
103499.998337
103500.001718
103500.001717
103500.001714
103500.001711
103500.001706
103500.001701
103500.001694
103500.001687
103500.001678
103500.001668
103500.001658
103500.001646
103500.001633
103500.001619
103500.001604
103500.001588
103500.001571
103500.001553
103500.001534
103500.001513
103500.001492
103500.001469
103500.001445
103500.00142
103500.001394
103500.001366
103500.001338
103500.001308
103500.001277
103500.001245
103500.001211
103500.001176
103500.001141
103500.001104
103500.001066
103500.001026
103500.000986
103500.000944
103500.000902
103500.000858
103500.000814
103500.000769
103500.000722
103500.000675
103500.000627
103500.000578
103500.000529
103500.000479
103500.000428
103500.000377
103500.000325
103500.000272
103500.00022
103500.000167
103500.000113
103500.00006
103500.000006
103499.999952
103499.999898
103499.999843
103499.999789
103499.999734
103499.999679
103499.999624
103499.999568
103499.999511
103499.999453
103499.999394
103499.999334
103499.999271
103499.999206
103499.999138
103499.999065
103499.998989
103499.998907
103499.998819
103499.998725
103499.998624
103499.998516
103499.998401
103499.998281
103500.001719
103500.001718
103500.001716
103500.001712
103500.001708
103500.001702
103500.001696
103500.001688
103500.00168
103500.00167
103500.00166
103500.001648
103500.001635
103500.001622
103500.001607
103500.001591
103500.001574
103500.001556
103500.001537
103500.001517
103500.001496
103500.001473
103500.001449
103500.001425
103500.001399
103500.001371
103500.001343
103500.001313
103500.001282
103500.00125
103500.001217
103500.001183
103500.001147
103500.001111
103500.001073
103500.001034
103500.000994
103500.000952
103500.00091
103500.000867
103500.000823
103500.000777
103500.000731
103500.000684
103500.000636
103500.000587
103500.000538
103500.000488
103500.000437
103500.000385
103500.000333
103500.00028
103500.000227
103500.000173
103500.000119
103500.000065
103500.00001
103499.999954
103499.999898
103499.999842
103499.999786
103499.999728
103499.999671
103499.999612
103499.999553
103499.999492
103499.999431
103499.999368
103499.999302
103499.999235
103499.999165
103499.999092
103499.999016
103499.998935
103499.998851
103499.998761
103499.998667
103499.998569
103499.998465
103499.998357
103499.998245
103500.00172
103500.001719
103500.001717
103500.001714
103500.001709
103500.001704
103500.001698
103500.00169
103500.001682
103500.001672
103500.001662
103500.00165
103500.001638
103500.001624
103500.00161
103500.001594
103500.001578
103500.00156
103500.001541
103500.001521
103500.0015
103500.001478
103500.001454
103500.00143
103500.001404
103500.001377
103500.001349
103500.00132
103500.001289
103500.001258
103500.001225
103500.001191
103500.001155
103500.001119
103500.001081
103500.001043
103500.001003
103500.000962
103500.00092
103500.000877
103500.000833
103500.000788
103500.000742
103500.000695
103500.000647
103500.000598
103500.000549
103500.000498
103500.000447
103500.000396
103500.000343
103500.00029
103500.000236
103500.000182
103500.000127
103500.000071
103500.000015
103499.999959
103499.999901
103499.999843
103499.999785
103499.999725
103499.999665
103499.999604
103499.999542
103499.999478
103499.999413
103499.999347
103499.999278
103499.999207
103499.999134
103499.999058
103499.998979
103499.998897
103499.998811
103499.998722
103499.99863
103499.998534
103499.998434
103499.998332
103499.998227
103500.001722
103500.001721
103500.001719
103500.001716
103500.001711
103500.001706
103500.0017
103500.001692
103500.001684
103500.001675
103500.001665
103500.001653
103500.001641
103500.001628
103500.001613
103500.001598
103500.001582
103500.001564
103500.001545
103500.001526
103500.001505
103500.001483
103500.00146
103500.001436
103500.00141
103500.001384
103500.001356
103500.001327
103500.001297
103500.001266
103500.001233
103500.0012
103500.001165
103500.001129
103500.001092
103500.001053
103500.001014
103500.000973
103500.000932
103500.000889
103500.000845
103500.000801
103500.000755
103500.000708
103500.00066
103500.000612
103500.000562
103500.000512
103500.000461
103500.000409
103500.000356
103500.000302
103500.000248
103500.000193
103500.000137
103500.000081
103500.000024
103499.999966
103499.999907
103499.999848
103499.999788
103499.999726
103499.999664
103499.999601
103499.999536
103499.99947
103499.999402
103499.999333
103499.999262
103499.999189
103499.999114
103499.999036
103499.998956
103499.998874
103499.998788
103499.998701
103499.99861
103499.998518
103499.998423
103499.998326
103499.998228
103500.001725
103500.001724
103500.001721
103500.001718
103500.001714
103500.001709
103500.001702
103500.001695
103500.001687
103500.001678
103500.001668
103500.001657
103500.001645
103500.001632
103500.001617
103500.001602
103500.001586
103500.001569
103500.001551
103500.001531
103500.001511
103500.00149
103500.001467
103500.001443
103500.001418
103500.001392
103500.001365
103500.001336
103500.001307
103500.001276
103500.001244
103500.001211
103500.001176
103500.001141
103500.001104
103500.001066
103500.001027
103500.000987
103500.000946
103500.000903
103500.00086
103500.000816
103500.00077
103500.000724
103500.000676
103500.000628
103500.000578
103500.000528
103500.000477
103500.000425
103500.000372
103500.000318
103500.000263
103500.000208
103500.000152
103500.000094
103500.000036
103499.999978
103499.999918
103499.999857
103499.999795
103499.999733
103499.999669
103499.999604
103499.999537
103499.999469
103499.9994
103499.999329
103499.999257
103499.999183
103499.999106
103499.999028
103499.998948
103499.998866
103499.998782
103499.998697
103499.998609
103499.99852
103499.998429
103499.998338
103499.998245
103500.001727
103500.001726
103500.001724
103500.001721
103500.001717
103500.001711
103500.001705
103500.001698
103500.00169
103500.001681
103500.001672
103500.001661
103500.001649
103500.001636
103500.001622
103500.001608
103500.001592
103500.001575
103500.001557
103500.001538
103500.001518
103500.001497
103500.001475
103500.001451
103500.001427
103500.001401
103500.001375
103500.001347
103500.001318
103500.001287
103500.001256
103500.001223
103500.001189
103500.001154
103500.001118
103500.001081
103500.001042
103500.001003
103500.000962
103500.00092
103500.000877
103500.000833
103500.000788
103500.000742
103500.000695
103500.000647
103500.000597
103500.000547
103500.000496
103500.000444
103500.000391
103500.000337
103500.000282
103500.000227
103500.00017
103500.000112
103500.000054
103499.999994
103499.999933
103499.999872
103499.999809
103499.999745
103499.99968
103499.999614
103499.999547
103499.999478
103499.999408
103499.999336
103499.999263
103499.999189
103499.999113
103499.999035
103499.998956
103499.998876
103499.998794
103499.99871
103499.998626
103499.99854
103499.998454
103499.998367
103499.99828
103500.00173
103500.001729
103500.001727
103500.001724
103500.00172
103500.001715
103500.001709
103500.001702
103500.001694
103500.001686
103500.001676
103500.001665
103500.001654
103500.001641
103500.001628
103500.001614
103500.001598
103500.001582
103500.001564
103500.001546
103500.001526
103500.001506
103500.001484
103500.001461
103500.001437
103500.001412
103500.001386
103500.001359
103500.00133
103500.001301
103500.00127
103500.001238
103500.001205
103500.00117
103500.001135
103500.001098
103500.00106
103500.001021
103500.000981
103500.00094
103500.000898
103500.000854
103500.000809
103500.000764
103500.000717
103500.000669
103500.00062
103500.000571
103500.00052
103500.000468
103500.000415
103500.000361
103500.000306
103500.00025
103500.000193
103500.000136
103500.000077
103500.000017
103499.999956
103499.999894
103499.999831
103499.999766
103499.999701
103499.999634
103499.999567
103499.999498
103499.999427
103499.999356
103499.999283
103499.999209
103499.999134
103499.999058
103499.99898
103499.998902
103499.998822
103499.998742
103499.998661
103499.998579
103499.998497
103499.998414
103499.998331
103500.001734
103500.001733
103500.001731
103500.001728
103500.001724
103500.001719
103500.001713
103500.001707
103500.001699
103500.001691
103500.001681
103500.001671
103500.00166
103500.001648
103500.001635
103500.001621
103500.001606
103500.00159
103500.001573
103500.001555
103500.001536
103500.001516
103500.001495
103500.001473
103500.001449
103500.001425
103500.0014
103500.001373
103500.001345
103500.001316
103500.001286
103500.001255
103500.001223
103500.001189
103500.001154
103500.001118
103500.001081
103500.001043
103500.001003
103500.000963
103500.000921
103500.000878
103500.000835
103500.000789
103500.000743
103500.000696
103500.000648
103500.000598
103500.000548
103500.000496
103500.000444
103500.00039
103500.000336
103500.00028
103500.000223
103500.000165
103500.000107
103500.000047
103499.999986
103499.999924
103499.999861
103499.999797
103499.999731
103499.999665
103499.999598
103499.999529
103499.99946
103499.999389
103499.999317
103499.999245
103499.999171
103499.999097
103499.999021
103499.998945
103499.998869
103499.998791
103499.998714
103499.998636
103499.998557
103499.998479
103499.998401
103500.001738
103500.001737
103500.001735
103500.001732
103500.001728
103500.001724
103500.001718
103500.001712
103500.001704
103500.001696
103500.001687
103500.001677
103500.001667
103500.001655
103500.001642
103500.001629
103500.001614
103500.001599
103500.001583
103500.001565
103500.001547
103500.001528
103500.001507
103500.001486
103500.001463
103500.00144
103500.001415
103500.001389
103500.001362
103500.001334
103500.001305
103500.001275
103500.001243
103500.00121
103500.001176
103500.001141
103500.001105
103500.001068
103500.001029
103500.00099
103500.000949
103500.000907
103500.000864
103500.000819
103500.000774
103500.000728
103500.00068
103500.000631
103500.000582
103500.000531
103500.000479
103500.000426
103500.000372
103500.000316
103500.00026
103500.000203
103500.000145
103500.000085
103500.000025
103499.999964
103499.999901
103499.999838
103499.999773
103499.999708
103499.999641
103499.999574
103499.999506
103499.999437
103499.999367
103499.999296
103499.999225
103499.999153
103499.99908
103499.999007
103499.998933
103499.998859
103499.998785
103499.998711
103499.998636
103499.998562
103499.998488
103500.001743
103500.001742
103500.00174
103500.001737
103500.001734
103500.001729
103500.001724
103500.001718
103500.001711
103500.001703
103500.001694
103500.001685
103500.001674
103500.001663
103500.001651
103500.001638
103500.001624
103500.00161
103500.001594
103500.001577
103500.00156
103500.001541
103500.001522
103500.001501
103500.001479
103500.001456
103500.001433
103500.001408
103500.001382
103500.001355
103500.001326
103500.001297
103500.001266
103500.001235
103500.001202
103500.001168
103500.001133
103500.001096
103500.001059
103500.00102
103500.000981
103500.00094
103500.000898
103500.000854
103500.00081
103500.000764
103500.000718
103500.00067
103500.000621
103500.000571
103500.00052
103500.000468
103500.000415
103500.000361
103500.000306
103500.000249
103500.000192
103500.000134
103500.000074
103500.000014
103499.999953
103499.999891
103499.999828
103499.999764
103499.999699
103499.999633
103499.999567
103499.9995
103499.999432
103499.999364
103499.999295
103499.999226
103499.999156
103499.999086
103499.999016
103499.998946
103499.998875
103499.998805
103499.998734
103499.998664
103499.998594
103500.001748
103500.001748
103500.001746
103500.001743
103500.001739
103500.001735
103500.00173
103500.001724
103500.001718
103500.00171
103500.001702
103500.001693
103500.001683
103500.001673
103500.001661
103500.001649
103500.001636
103500.001622
103500.001607
103500.001591
103500.001574
103500.001556
103500.001538
103500.001518
103500.001497
103500.001476
103500.001453
103500.001429
103500.001404
103500.001378
103500.001351
103500.001323
103500.001293
103500.001263
103500.001231
103500.001198
103500.001164
103500.001129
103500.001093
103500.001056
103500.001017
103500.000977
103500.000937
103500.000895
103500.000852
103500.000807
103500.000762
103500.000716
103500.000668
103500.000619
103500.00057
103500.000519
103500.000467
103500.000414
103500.00036
103500.000305
103500.00025
103500.000193
103500.000135
103500.000076
103500.000017
103499.999957
103499.999896
103499.999834
103499.999771
103499.999708
103499.999644
103499.99958
103499.999515
103499.999449
103499.999384
103499.999317
103499.999251
103499.999185
103499.999118
103499.999051
103499.998985
103499.998918
103499.998852
103499.998786
103499.99872
103500.001755
103500.001754
103500.001752
103500.00175
103500.001746
103500.001742
103500.001737
103500.001732
103500.001726
103500.001719
103500.001711
103500.001703
103500.001693
103500.001683
103500.001673
103500.001661
103500.001649
103500.001635
103500.001621
103500.001606
103500.001591
103500.001574
103500.001556
103500.001537
103500.001518
103500.001497
103500.001475
103500.001453
103500.001429
103500.001404
103500.001378
103500.001352
103500.001324
103500.001294
103500.001264
103500.001233
103500.0012
103500.001167
103500.001132
103500.001096
103500.001059
103500.001021
103500.000981
103500.000941
103500.0009
103500.000857
103500.000813
103500.000768
103500.000722
103500.000675
103500.000627
103500.000578
103500.000528
103500.000477
103500.000425
103500.000372
103500.000318
103500.000264
103500.000208
103500.000152
103500.000094
103500.000036
103499.999978
103499.999919
103499.999859
103499.999798
103499.999737
103499.999676
103499.999614
103499.999552
103499.99949
103499.999427
103499.999365
103499.999302
103499.999239
103499.999176
103499.999114
103499.999051
103499.998989
103499.998927
103499.998865
103500.001762
103500.001761
103500.00176
103500.001757
103500.001754
103500.00175
103500.001746
103500.001741
103500.001735
103500.001729
103500.001721
103500.001713
103500.001705
103500.001696
103500.001686
103500.001675
103500.001663
103500.001651
103500.001638
103500.001624
103500.001609
103500.001593
103500.001577
103500.001559
103500.001541
103500.001521
103500.001501
103500.00148
103500.001457
103500.001434
103500.00141
103500.001384
103500.001358
103500.00133
103500.001301
103500.001272
103500.001241
103500.001209
103500.001176
103500.001142
103500.001106
103500.00107
103500.001033
103500.000994
103500.000954
103500.000914
103500.000872
103500.000829
103500.000785
103500.00074
103500.000694
103500.000647
103500.000599
103500.000551
103500.000501
103500.00045
103500.000399
103500.000347
103500.000294
103500.00024
103500.000186
103500.000131
103500.000075
103500.000019
103499.999962
103499.999905
103499.999848
103499.99979
103499.999732
103499.999673
103499.999615
103499.999556
103499.999497
103499.999438
103499.99938
103499.999321
103499.999263
103499.999204
103499.999146
103499.999088
103499.999031
103500.00177
103500.001769
103500.001768
103500.001766
103500.001763
103500.001759
103500.001755
103500.001751
103500.001745
103500.001739
103500.001733
103500.001726
103500.001718
103500.001709
103500.0017
103500.00169
103500.00168
103500.001668
103500.001656
103500.001643
103500.00163
103500.001615
103500.0016
103500.001584
103500.001566
103500.001548
103500.00153
103500.00151
103500.001489
103500.001467
103500.001444
103500.001421
103500.001396
103500.00137
103500.001343
103500.001315
103500.001286
103500.001256
103500.001225
103500.001193
103500.00116
103500.001126
103500.00109
103500.001054
103500.001016
103500.000978
103500.000938
103500.000898
103500.000856
103500.000814
103500.00077
103500.000726
103500.000681
103500.000635
103500.000588
103500.00054
103500.000492
103500.000443
103500.000393
103500.000342
103500.000291
103500.00024
103500.000187
103500.000135
103500.000082
103500.000028
103499.999975
103499.999921
103499.999866
103499.999812
103499.999758
103499.999703
103499.999648
103499.999594
103499.999539
103499.999485
103499.999431
103499.999377
103499.999323
103499.999269
103499.999216
103500.001779
103500.001779
103500.001777
103500.001775
103500.001773
103500.00177
103500.001766
103500.001762
103500.001757
103500.001752
103500.001746
103500.001739
103500.001732
103500.001725
103500.001716
103500.001707
103500.001698
103500.001688
103500.001677
103500.001665
103500.001652
103500.001639
103500.001625
103500.001611
103500.001595
103500.001579
103500.001561
103500.001543
103500.001524
103500.001504
103500.001483
103500.001461
103500.001438
103500.001415
103500.00139
103500.001364
103500.001337
103500.001309
103500.00128
103500.00125
103500.00122
103500.001188
103500.001155
103500.001121
103500.001086
103500.00105
103500.001013
103500.000976
103500.000937
103500.000897
103500.000857
103500.000816
103500.000773
103500.00073
103500.000687
103500.000642
103500.000597
103500.000552
103500.000505
103500.000459
103500.000411
103500.000363
103500.000315
103500.000266
103500.000217
103500.000168
103500.000118
103500.000069
103500.000019
103499.999969
103499.999919
103499.999868
103499.999818
103499.999768
103499.999718
103499.999668
103499.999619
103499.999569
103499.99952
103499.999471
103499.999422
103500.00179
103500.001789
103500.001788
103500.001786
103500.001784
103500.001781
103500.001778
103500.001774
103500.00177
103500.001765
103500.00176
103500.001755
103500.001748
103500.001742
103500.001734
103500.001726
103500.001718
103500.001709
103500.001699
103500.001689
103500.001678
103500.001666
103500.001654
103500.00164
103500.001626
103500.001612
103500.001596
103500.00158
103500.001563
103500.001545
103500.001526
103500.001506
103500.001485
103500.001463
103500.001441
103500.001417
103500.001393
103500.001368
103500.001341
103500.001314
103500.001286
103500.001256
103500.001226
103500.001195
103500.001163
103500.00113
103500.001097
103500.001062
103500.001027
103500.00099
103500.000953
103500.000915
103500.000877
103500.000837
103500.000797
103500.000757
103500.000715
103500.000674
103500.000631
103500.000588
103500.000545
103500.000501
103500.000457
103500.000413
103500.000368
103500.000323
103500.000278
103500.000233
103500.000188
103500.000142
103500.000097