/*--------------------------------*- C++ -*----------------------------------*\
| =========                 |                                                 |
| \\      /  F ield         | OpenFOAM: The Open Source CFD Toolbox           |
|  \\    /   O peration     | Version:  2112                                  |
|   \\  /    A nd           | Website:  www.openfoam.com                      |
|    \\/     M anipulation  |                                                 |
\*---------------------------------------------------------------------------*/
FoamFile
{
    version     2.0;
    format      ascii;
    arch        "LSB;label=32;scalar=64";
    class       surfaceScalarField;
    location    "0.8";
    object      phi;
}
// * * * * * * * * * * * * * * * * * * * * * * * * * * * * * * * * * * * * * //

dimensions      [1 0 -1 0 0 0 0];

oriented        oriented;

internalField   nonuniform List<scalar> 
23692
(
2.3271244154e-06
-1.3555640034e-10
2.32719760894e-06
-7.25232313864e-11
2.32696210976e-06
2.367907253e-10
2.32618978555e-06
7.74228534569e-10
2.32475364363e-06
1.43869091181e-09
2.32266715738e-06
2.08979169103e-09
2.32006657254e-06
2.60467151665e-09
2.317151782e-06
2.91971152639e-09
2.31412000257e-06
3.03766979119e-09
2.31112023649e-06
3.00666793849e-09
2.30823781902e-06
2.89044122357e-09
2.30550248762e-06
2.74453288839e-09
2.30290749162e-06
2.60556103913e-09
2.30042897844e-06
2.49047190647e-09
2.29804007667e-06
2.40240120632e-09
2.29571848239e-06
2.33673264806e-09
2.29344898649e-06
2.28632795391e-09
2.29122301022e-06
2.24466600901e-09
2.28903690264e-06
2.20674229052e-09
2.28689009442e-06
2.16950259272e-09
2.28478361709e-06
2.13125328008e-09
2.28271915334e-06
2.0914812269e-09
2.2806984066e-06
2.05002420765e-09
2.27872288384e-06
2.00717557372e-09
2.27679376648e-06
1.96328092324e-09
2.27491190168e-06
1.91849884115e-09
2.27307787423e-06
1.87319606646e-09
2.27129202315e-06
1.8276028132e-09
2.2695544911e-06
1.78195859822e-09
2.26786522564e-06
1.73633826868e-09
2.26622397169e-06
1.69098829852e-09
2.26463027634e-06
1.64610697241e-09
2.2630834026e-06
1.60196964817e-09
2.26158231326e-06
1.5588533535e-09
2.26012560164e-06
1.51708741342e-09
2.25871144503e-06
1.47719476359e-09
2.25733747444e-06
1.43954424152e-09
2.25600077056e-06
1.40483151877e-09
2.25469769504e-06
1.37366193556e-09
2.25342389986e-06
1.34680480828e-09
2.25217415851e-06
1.32511178228e-09
2.25094230398e-06
1.30950048469e-09
2.24972111497e-06
1.30103406717e-09
2.24850222979e-06
1.30086921557e-09
2.24727602152e-06
1.31022970757e-09
2.2460314677e-06
1.33049971529e-09
2.24475605039e-06
1.36323641232e-09
2.24343556674e-06
1.41005997076e-09
2.24205396427e-06
1.47282237912e-09
2.24059316929e-06
1.55358100644e-09
2.23903278912e-06
1.65461529634e-09
2.23734988574e-06
1.77849407202e-09
2.23551859638e-06
1.9281096028e-09
2.23350974875e-06
2.10680732025e-09
2.23129030566e-06
2.31841960628e-09
2.22882278079e-06
2.56741260596e-09
2.22606440937e-06
2.85904558078e-09
2.22296619535e-06
3.19958618759e-09
2.21947166095e-06
3.59648714507e-09
2.21551526464e-06
4.05879801628e-09
2.21102040368e-06
4.5976167484e-09
2.20589680461e-06
5.22658049152e-09
2.20003715583e-06
5.96278417962e-09
2.1933126263e-06
6.82767550815e-09
2.18556694677e-06
7.84874013698e-09
2.17660835663e-06
9.06146773931e-09
2.16619858841e-06
1.05123902089e-08
2.15403747429e-06
1.22633554799e-08
2.13974118175e-06
1.43980968574e-08
2.12281071939e-06
1.70317235009e-08
2.10258575187e-06
2.03256186043e-08
2.07817538821e-06
2.45103401974e-08
2.04835275668e-06
2.99218552616e-08
2.01139155952e-06
3.70596524289e-08
1.96480837823e-06
4.66807842798e-08
1.90495339452e-06
5.99516964813e-08
1.82636296706e-06
7.86862417854e-08
1.72071329289e-06
1.05744546031e-07
1.57484572643e-06
1.45961495379e-07
1.3665197241e-06
2.08419006836e-07
3.17258163101e-07
1.04935371858e-06
2.49013110333e-06
-2.83086444465e-10
2.49021647575e-06
-1.57097065331e-10
2.48997616364e-06
4.78530859489e-10
2.48916502161e-06
1.58742258784e-09
2.48764575567e-06
2.96080757459e-09
2.48543073109e-06
4.30834811075e-09
2.48266379603e-06
5.37600140488e-09
2.47955754403e-06
6.03130363881e-09
2.47632252208e-06
6.27900200647e-09
2.47311842241e-06
6.21817141701e-09
2.47003724225e-06
5.98020603079e-09
2.46711166515e-06
5.68006138063e-09
2.46433524901e-06
5.39326366699e-09
2.46168310393e-06
5.15545821191e-09
2.45912687788e-06
4.97306127715e-09
2.45664291471e-06
4.8368385993e-09
2.45421501504e-06
4.73229280724e-09
2.45183394674e-06
4.64572575234e-09
2.44949571835e-06
4.56701903027e-09
2.44719959759e-06
4.48982072546e-09
2.44494658301e-06
4.41080834041e-09
2.44273834393e-06
4.3286174578e-09
2.44057661989e-06
4.24313062406e-09
2.43846293214e-06
4.15478222409e-09
2.43639845582e-06
4.06422287321e-09
2.43438405885e-06
3.9720774134e-09
2.43242029769e-06
3.87888239462e-09
2.43050749427e-06
3.78514324252e-09
2.4286457337e-06
3.69120120035e-09
2.42683493618e-06
3.59750577978e-09
2.425074778e-06
3.50434920052e-09
2.4233647378e-06
3.41224059825e-09
2.42170397821e-06
3.32164741855e-09
2.42009135131e-06
3.23323472229e-09
2.4185253286e-06
3.14777862222e-09
2.4170038925e-06
3.06600857014e-09
2.41552451182e-06
2.98910122373e-09
2.4140840134e-06
2.91820524926e-09
2.41267849857e-06
2.85469661597e-09
2.41130329062e-06
2.80014558558e-09
2.40995278673e-06
2.75623578483e-09
2.4086204002e-06
2.72496662966e-09
2.40729842397e-06
2.70844403328e-09
2.40597793544e-06
2.70904691112e-09
2.4046486865e-06
2.72934685177e-09
2.40329895872e-06
2.77220740112e-09
2.40191543117e-06
2.84069990076e-09
2.40048304214e-06
2.93827959392e-09
2.3989847718e-06
3.06870650263e-09
2.3974014722e-06
3.236173568e-09
2.39571157765e-06
3.44534566015e-09
2.39389085041e-06
3.70148641656e-09
2.39191201391e-06
4.01055251884e-09
2.38974432604e-06
4.37929853325e-09
2.38735305411e-06
4.8155695328e-09
2.3846988641e-06
5.32848906331e-09
2.38173698491e-06
5.92868051887e-09
2.37841622247e-06
6.62879273743e-09
2.37467777697e-06
7.44398635851e-09
2.3704536411e-06
8.3925162792e-09
2.36566460082e-06
9.49658864017e-09
2.36021779237e-06
1.07836176323e-08
2.35400332844e-06
1.22875638346e-08
2.34689019559e-06
1.40511794639e-08
2.33872059616e-06
1.61286329321e-08
2.32930262381e-06
1.85895531841e-08
2.31840033564e-06
2.15244569276e-08
2.3057204225e-06
2.5052696801e-08
2.29089370726e-06
2.93337233129e-08
2.27344983358e-06
3.45839544962e-08
2.25278181491e-06
4.11013605916e-08
2.22809667982e-06
4.9302461544e-08
2.19834722794e-06
5.97775212165e-08
2.16213979131e-06
7.3372430284e-08
2.11761729178e-06
9.13077349374e-08
2.06233394949e-06
1.15338549857e-07
1.99319499924e-06
1.4792772229e-07
1.90668974646e-06
1.92351309801e-07
1.80011398826e-06
2.5263776445e-07
1.67678012696e-06
3.31852322973e-07
4.19684868608e-07
1.57445185659e-06
2.66455605312e-06
-4.44058773364e-10
2.66465904223e-06
-2.59274988638e-10
2.66442290658e-06
7.16085863847e-10
2.66358684638e-06
2.42571301197e-09
2.66200153111e-06
4.54902921762e-09
2.65967537139e-06
6.63830006834e-09
2.65675658457e-06
8.29946086531e-09
2.65346798488e-06
9.32555537807e-09
2.65003240012e-06
9.72131363602e-09
2.646620594e-06
9.63789184243e-09
2.64333261133e-06
9.27741357277e-09
2.64020581349e-06
8.81743379003e-09
2.63723570886e-06
8.37541242122e-09
2.63439755312e-06
8.00728380397e-09
2.63166225673e-06
7.72379431794e-09
2.62900514164e-06
7.51127412424e-09
2.62640904369e-06
7.34764843333e-09
2.62386398042e-06
7.21216177265e-09
2.62136541873e-06
7.0892068042e-09
2.61891226133e-06
6.96892197106e-09
2.6165052614e-06
6.8461804505e-09
2.61414593597e-06
6.71885120052e-09
2.61183590947e-06
6.58668001058e-09
2.60957661119e-06
6.45035914439e-09
2.60736913592e-06
6.31074084235e-09
2.60521426896e-06
6.16887272407e-09
2.6031124957e-06
6.02551409346e-09
2.60106403953e-06
5.88139230012e-09
2.59906891386e-06
5.73716734095e-09
2.59712691596e-06
5.59335571658e-09
2.59523763073e-06
5.45055724183e-09
2.59340038623e-06
5.30947960407e-09
2.59161421458e-06
5.17088625559e-09
2.58987780146e-06
5.03578672726e-09
2.58818939562e-06
4.90526325649e-09
2.58654680099e-06
4.78074734929e-09
2.58494719249e-06
4.66377264335e-09
2.58338711491e-06
4.55624882069e-09
2.58186234184e-06
4.46026231987e-09
2.5803678094e-06
4.37822373096e-09
2.57889751745e-06
4.31280953665e-09
2.57744438609e-06
4.26696907728e-09
2.57600020441e-06
4.24402841366e-09
2.57455546108e-06
4.24761991535e-09
2.5730992882e-06
4.28170536095e-09
2.57161925361e-06
4.35062325203e-09
2.57010130402e-06
4.45917735309e-09
2.56852954099e-06
4.61258375729e-09
2.56688605286e-06
4.81660815977e-09
2.56515072773e-06
5.07769775175e-09
2.56330097775e-06
5.40296075367e-09
2.56131147896e-06
5.80041957776e-09
2.55915377837e-06
6.27907678994e-09
2.55679594436e-06
6.84927008744e-09
2.55420200492e-06
7.52284266387e-09
2.55133133764e-06
8.31349351545e-09
2.54813794605e-06
9.23732337522e-09
2.54456948695e-06
1.03133113159e-08
2.54056614128e-06
1.15640595541e-08
2.53605915796e-06
1.30167289218e-08
2.5309690964e-06
1.47042944814e-08
2.52520354766e-06
1.66670676914e-08
2.51865434928e-06
1.89548405131e-08
2.51119398098e-06
2.16296433399e-08
2.50267109215e-06
2.47695424954e-08
2.49290470665e-06
2.84737567926e-08
2.48167694064e-06
3.28697454779e-08
2.4687237174e-06
3.81229967758e-08
2.45372320947e-06
4.44508239651e-08
2.43628153871e-06
5.2141602508e-08
2.41591627949e-06
6.15819038183e-08
2.39203907201e-06
7.3294198572e-08
2.36394225089e-06
8.79880036586e-08
2.3308016443e-06
1.06625837563e-07
2.29172283246e-06
1.30498365097e-07
2.24589025415e-06
1.61281918447e-07
2.19293220165e-06
2.0099552557e-07
2.13372213315e-06
2.51670039861e-07
2.07214737291e-06
3.14320041207e-07
2.01838955044e-06
3.85716535186e-07
4.49426003904e-07
1.98875358216e-06
2.85119977753e-06
-6.20486649921e-10
2.85132638643e-06
-3.85026497578e-10
2.85110673965e-06
9.37374005182e-10
2.8502648831e-06
3.26991352024e-09
2.84863784919e-06
6.17926153128e-09
2.84622635283e-06
9.05384442436e-09
2.84317857162e-06
1.13522475844e-08
2.83972396808e-06
1.27861958534e-08
2.83609594837e-06
1.33565575943e-08
2.83247660824e-06
1.32657242065e-08
2.82897568506e-06
1.27880996525e-08
2.82563746956e-06
1.21669184847e-08
2.82246154661e-06
1.15643110317e-08
2.81942494374e-06
1.10585548252e-08
2.81649885841e-06
1.06664330868e-08
2.81365806979e-06
1.03705764055e-08
2.81088456755e-06
1.01418047551e-08
2.80816747501e-06
9.95211445328e-09
2.80550148474e-06
9.78044929864e-09
2.80288488351e-06
9.61328465428e-09
2.80031793296e-06
9.44343560388e-09
2.79780178897e-06
9.26802095106e-09
2.79533779876e-06
9.0865309172e-09
2.79292714664e-06
8.89976313226e-09
2.79057075844e-06
8.70891155731e-09
2.78826923274e-06
8.51519121668e-09
2.78602291145e-06
8.31975744306e-09
2.78383187061e-06
8.12359538843e-09
2.78169595633e-06
7.92741957921e-09
2.7796148131e-06
7.73209324885e-09
2.7775878591e-06
7.53840936383e-09
2.77561421394e-06
7.34727043601e-09
2.77369271855e-06
7.15982707108e-09
2.77182180646e-06
6.97737437384e-09
2.76999949557e-06
6.80148502739e-09
2.76822327301e-06
6.63407492961e-09
2.76649000899e-06
6.47732902155e-09
2.76479587675e-06
6.333757978e-09
2.76313627893e-06
6.20628755316e-09
2.76150572215e-06
6.09816008573e-09
2.75989773036e-06
6.01304458586e-09
2.75830473691e-06
5.95500865571e-09
2.75671799245e-06
5.92856096877e-09
2.75512740439e-06
5.93856391849e-09
2.75352149009e-06
5.99046804981e-09
2.75188717719e-06
6.09015788119e-09
2.75020971913e-06
6.2441352507e-09
2.74847249932e-06
6.45945292915e-09
2.74665688093e-06
6.7439367573e-09
2.74474195732e-06
7.10622089308e-09
2.74270439947e-06
7.55591305089e-09
2.74051809941e-06
8.1037564307e-09
2.73815389925e-06
8.76185109557e-09
2.73557918627e-06
9.54395081343e-09
2.73275742099e-06
1.0465802268e-08
2.72964762851e-06
1.1545621705e-08
2.72620367316e-06
1.28046001616e-08
2.72237347594e-06
1.42676671503e-08
2.71809805799e-06
1.59643357802e-08
2.71331033583e-06
1.79298876947e-08
2.70793369636e-06
2.02067999948e-08
2.70188029803e-06
2.28466450433e-08
2.69504901617e-06
2.59124763386e-08
2.68732297916e-06
2.94820540936e-08
2.67856676566e-06
3.36520498141e-08
2.66862313139e-06
3.85434820351e-08
2.65730946258e-06
4.43091718573e-08
2.64441430013e-06
5.11434849933e-08
2.62969455202e-06
5.92953741598e-08
2.61287482448e-06
6.90854789677e-08
2.59365185649e-06
8.09282844926e-08
2.57170917699e-06
9.53594728823e-08
2.54675188212e-06
1.13067012395e-07
2.51857873553e-06
1.34919728433e-07
2.4872204514e-06
1.61976348489e-07
2.45318712456e-06
1.9543388717e-07
2.41787325096e-06
2.3642690568e-07
2.38414770564e-06
2.85511919904e-07
2.35702994563e-06
3.41552903251e-07
2.34337693459e-06
3.99483397544e-07
4.46710500056e-07
2.34620493723e-06
3.05091820569e-06
-8.14798505284e-10
3.05107575619e-06
-5.41670685405e-10
3.05088786983e-06
1.12692235637e-09
3.05006458165e-06
4.09570760127e-09
3.04842753344e-06
7.81967096412e-09
3.04596525263e-06
1.15204959307e-08
3.04282026723e-06
1.45025699279e-08
3.03922400869e-06
1.63889357232e-08
3.03541800273e-06
1.71702330748e-08
3.03159571359e-06
1.70970311661e-08
3.02787845036e-06
1.65158717718e-08
3.02432009428e-06
1.57373509966e-08
3.02092693343e-06
1.49712774114e-08
3.01767986605e-06
1.4321310995e-08
3.01455168528e-06
1.38122175984e-08
3.01151731439e-06
1.34247045749e-08
3.00855806183e-06
1.31231289502e-08
3.0056620584e-06
1.28725789408e-08
3.00282294384e-06
1.26465318565e-08
3.00003808752e-06
1.24277991616e-08
2.99730699131e-06
1.22070088656e-08
2.9946301827e-06
1.19801763723e-08
2.99200852877e-06
1.17465620859e-08
2.98944282245e-06
1.15069193797e-08
2.9869336673e-06
1.12626944143e-08
2.98448140442e-06
1.10153775805e-08
2.98208613247e-06
1.07663450388e-08
2.97974767921e-06
1.05166900876e-08
2.97746570147e-06
1.02675182786e-08
2.97523960076e-06
1.00197819964e-08
2.97306855151e-06
9.77453953271e-09
2.97095142604e-06
9.53297713466e-09
2.96888678263e-06
9.29657029965e-09
2.96687275695e-06
9.06697599057e-09
2.96490704996e-06
8.84627068027e-09
2.96298677596e-06
8.63684337008e-09
2.96110841047e-06
8.44151096187e-09
2.95926773688e-06
8.26359847523e-09
2.95745969793e-06
8.10671771375e-09
2.95567834338e-06
7.97508949859e-09
2.95391669618e-06
7.87334547882e-09
2.95216668521e-06
7.80666676554e-09
2.95041900645e-06
7.78073568944e-09
2.94866305528e-06
7.80182331184e-09
2.9468867696e-06
7.87673622959e-09
2.94507654897e-06
8.01296349338e-09
2.94321706321e-06
8.21859674024e-09
2.94129118296e-06
8.50262899939e-09
2.93927974748e-06
8.87484161811e-09
2.93716139753e-06
9.34606361172e-09
2.93491243081e-06
9.92831595357e-09
2.93250645202e-06
1.0634929653e-08
2.92991418323e-06
1.14809371047e-08
2.92710310307e-06
1.24833329921e-08
2.92403707638e-06
1.36614766486e-08
2.92067590783e-06
1.50376432345e-08
2.91697483411e-06
1.66375777647e-08
2.91288389026e-06
1.8491404684e-08
2.90834728864e-06
2.06345089516e-08
2.90330255574e-06
2.3108819881e-08
2.89767968588e-06
2.59643515417e-08
2.89140016159e-06
2.92611526896e-08
2.8843760135e-06
3.30717955279e-08
2.87650884249e-06
3.74844683695e-08
2.86768906801e-06
4.26069486894e-08
2.85779582399e-06
4.85716686127e-08
2.84669760102e-06
5.55419934465e-08
2.83425500391e-06
6.37202314635e-08
2.8203266122e-06
7.33573409963e-08
2.80478052395e-06
8.47644614106e-08
2.78751526975e-06
9.83256802137e-08
2.76849585596e-06
1.14510178532e-07
2.74781366157e-06
1.33879529865e-07
2.72578204921e-06
1.57080644031e-07
2.70308090909e-06
1.84805728167e-07
2.68095771306e-06
2.17684146259e-07
2.6614643017e-06
2.56046182137e-07
2.64762997688e-06
2.99470823869e-07
2.64328085438e-06
3.46025302134e-07
2.65170983423e-06
3.91176321579e-07
4.26813228119e-07
2.67172756619e-06
3.26462718104e-06
-1.02949688828e-09
3.2648239991e-06
-7.37500785309e-10
3.26468563969e-06
1.26710317837e-09
3.26390980042e-06
4.87421321001e-09
3.26230107849e-06
9.43201111647e-09
3.25983072108e-06
1.3995438663e-08
3.25662904157e-06
1.7710011246e-08
3.25292368014e-06
2.01012744285e-08
3.24896108631e-06
2.11410731466e-08
3.24494576723e-06
2.11219619838e-08
3.24101250772e-06
2.0460383581e-08
3.23722778331e-06
1.95350561738e-08
3.23360762206e-06
1.86061905592e-08
3.23013924939e-06
1.7806376592e-08
3.22679872809e-06
1.71716301548e-08
3.22356196429e-06
1.6682617613e-08
3.220409871e-06
1.62987413354e-08
3.21732952521e-06
1.59790941472e-08
3.21431324939e-06
1.56916674192e-08
3.21135715852e-06
1.54155446325e-08
3.20845966884e-06
1.51391420643e-08
3.20562042589e-06
1.48571943351e-08
3.20283956464e-06
1.45684048892e-08
3.20011731882e-06
1.42735033768e-08
3.19745382322e-06
1.39739063652e-08
3.19484904294e-06
1.36714165462e-08
3.19230272254e-06
1.33674547254e-08
3.18981440927e-06
1.30634300307e-08
3.1873834482e-06
1.27605994862e-08
3.18500894972e-06
1.24601045785e-08
3.18268977489e-06
1.21632919322e-08
3.18042448648e-06
1.18716082479e-08
3.17821127359e-06
1.15868616652e-08
3.17604792532e-06
1.13111050054e-08
3.17393172865e-06
1.10469479653e-08
3.17185938036e-06
1.07973484082e-08
3.16982692948e-06
1.05657553399e-08
3.16782965083e-06
1.03561660643e-08
3.16586204646e-06
1.01731251686e-08
3.16391763944e-06
1.00216759902e-08
3.16198896954e-06
9.90747761995e-09
3.16006745553e-06
9.83685514513e-09
3.15814331716e-06
9.81664191883e-09
3.15620546271e-06
9.85441217135e-09
3.1542414001e-06
9.95840663949e-09
3.15223710157e-06
1.01375618491e-08
3.15017693904e-06
1.040171694e-08
3.1480434742e-06
1.07614887781e-08
3.14581739538e-06
1.12286633655e-08
3.14347732611e-06
1.18160684727e-08
3.14099968009e-06
1.25379280924e-08
3.13835846259e-06
1.34100081269e-08
3.13552507297e-06
1.44499306254e-08
3.13246806166e-06
1.5677555125e-08
3.12915290637e-06
1.71153005864e-08
3.12554165001e-06
1.87888198425e-08
3.12159273714e-06
2.07275774155e-08
3.11726053915e-06
2.29656525975e-08
3.11249517567e-06
2.55427502804e-08
3.10724214949e-06
2.85053953053e-08
3.10144217577e-06
3.19083784317e-08
3.09503116371e-06
3.58165926993e-08
3.08794042643e-06
4.03071624697e-08
3.08009745689e-06
4.54721494215e-08
3.0714274031e-06
5.14216364771e-08
3.0618558914e-06
5.8287602833e-08
3.05131371445e-06
6.62282299086e-08
3.03974468314e-06
7.54328712978e-08
3.02711788546e-06
8.61271524911e-08
3.01344690224e-06
9.85777671683e-08
2.9988187774e-06
1.13095307841e-07
2.98343673336e-06
1.30032817255e-07
2.96768080378e-06
1.4977505509e-07
2.95218962431e-06
1.72710372386e-07
2.93796112543e-06
1.99171610587e-07
2.92645618038e-06
2.29325256644e-07
2.91965623318e-06
2.62980999727e-07
2.91996483727e-06
2.99295745993e-07
2.92974533764e-06
3.36376923658e-07
2.95016497302e-06
3.708873406e-07
3.98007111919e-07
2.9791002119e-06
3.4933065526e-06
-1.267279646e-09
3.49355146536e-06
-9.81331417736e-10
3.49348182936e-06
1.33866511338e-09
3.49278524148e-06
5.57372749096e-09
3.49124786922e-06
1.09732460929e-08
3.48881845997e-06
1.64297982494e-08
3.48560790927e-06
2.09266679351e-08
3.48183356454e-06
2.3882970084e-08
3.47774285305e-06
2.52405815906e-08
3.47355052891e-06
2.53246380781e-08
3.4694065295e-06
2.46163576887e-08
3.46539298359e-06
2.35623711616e-08
3.461538952e-06
2.24759697771e-08
3.45784071623e-06
2.1522525635e-08
3.45427947814e-06
2.07530258586e-08
3.4508332209e-06
2.01514367673e-08
3.44748290581e-06
1.96742341421e-08
3.444214505e-06
1.92753951293e-08
3.44101883477e-06
1.89181314838e-08
3.43789044604e-06
1.85778361963e-08
3.43482631985e-06
1.82402881915e-08
3.43182493134e-06
1.7898937699e-08
3.42888546168e-06
1.75516621661e-08
3.42600735726e-06
1.7198884711e-08
3.42319018087e-06
1.68421152059e-08
3.42043334274e-06
1.64829287272e-08
3.41773618668e-06
1.61231304895e-08
3.41509786596e-06
1.57642065205e-08
3.41251733379e-06
1.54074934942e-08
3.4099933634e-06
1.50544435959e-08
3.40752440642e-06
1.47065620845e-08
3.40510866389e-06
1.43657174159e-08
3.40274387791e-06
1.40339239905e-08
3.40042744546e-06
1.37138914593e-08
3.39815616606e-06
1.3408526805e-08
3.39592625239e-06
1.31214505403e-08
3.39373327135e-06
1.28567982178e-08
3.39157200581e-06
1.2619285767e-08
3.38943642694e-06
1.24142377128e-08
3.38731956512e-06
1.22476757615e-08
3.38521351582e-06
1.2126264608e-08
3.38310920244e-06
1.20572866247e-08
3.38099647738e-06
1.20488219898e-08
3.37886389232e-06
1.21096458034e-08
3.37669867426e-06
1.22492896708e-08
3.3744866602e-06
1.24782065162e-08
3.37221211934e-06
1.28076343142e-08
3.36985777137e-06
1.32499087165e-08
3.36740455278e-06
1.38184166295e-08
3.36483164276e-06
1.45278693712e-08
3.36211626561e-06
1.53943767993e-08
3.35923363953e-06
1.64357402905e-08
3.35615685144e-06
1.76717398687e-08
3.35285668822e-06
1.91244102358e-08
3.3493016872e-06
2.08185778575e-08
3.34545787327e-06
2.27822595692e-08
3.34128892289e-06
2.50474112679e-08
3.33675601097e-06
2.76504927709e-08
3.33181808817e-06
3.06334922575e-08
3.32643208507e-06
3.40449353156e-08
3.32055352795e-06
3.79410487379e-08
3.31413739026e-06
4.23872287366e-08
3.307139668e-06
4.74596583056e-08
3.29951954591e-06
5.32471039535e-08
3.29124299174e-06
5.9852983946e-08
3.28228775997e-06
6.73974029014e-08
3.27265099737e-06
7.60192166737e-08
3.26235995888e-06
8.587765428e-08
3.25148729003e-06
9.71529829095e-08
3.24017203787e-06
1.10045421811e-07
3.2286482424e-06
1.24770679031e-07
3.21728183286e-06
1.41549868077e-07
3.20661611518e-06
1.60590363462e-07
3.19742255945e-06
1.82052396829e-07
3.19074702439e-06
2.05994390679e-07
3.18792941289e-06
2.32288809397e-07
3.19055350395e-06
2.60501515431e-07
3.20025525044e-06
2.89737192006e-07
3.21829388276e-06
3.18479981508e-07
3.24480745012e-06
3.44513938587e-07
3.65099274981e-07
3.27785383557e-06
3.73800459128e-06
-1.53058777209e-09
3.73830616293e-06
-1.28182734871e-09
3.73832428014e-06
1.32264617929e-09
3.7377391067e-06
6.16186940407e-09
3.73631760258e-06
1.23989079596e-08
3.73398117189e-06
1.87715096428e-08
3.73081417986e-06
2.41001592457e-08
3.72701683914e-06
2.76882112945e-08
3.72283300327e-06
2.94338091651e-08
3.71848622785e-06
2.9682451809e-08
3.71414280963e-06
2.89725701602e-08
3.70990327167e-06
2.78166445692e-08
3.70581288366e-06
2.65832292517e-08
3.70187978318e-06
2.54746978428e-08
3.69809238517e-06
2.45619544265e-08
3.69443200106e-06
2.38359394734e-08
3.6908802021e-06
2.32529439579e-08
3.68742200918e-06
2.27633813552e-08
3.68404659069e-06
2.23264530439e-08
3.68074663857e-06
2.19139039794e-08
3.67751746636e-06
2.15090131647e-08
3.67435605584e-06
2.11034144371e-08
3.67126041677e-06
2.06940641928e-08
3.66822904999e-06
2.02808115792e-08
3.66526070277e-06
1.98648507828e-08
3.66235422299e-06
1.94478735033e-08
3.65950838522e-06
1.90315088368e-08
3.65672185379e-06
1.86173541793e-08
3.65399316375e-06
1.82070242352e-08
3.65132062841e-06
1.78020727194e-08
3.64870229177e-06
1.7404307445e-08
3.64613584114e-06
1.70157939855e-08
3.64361862826e-06
1.66391128273e-08
3.64114746917e-06
1.62772124579e-08
3.63871871126e-06
1.59337224114e-08
3.63632803364e-06
1.56127440123e-08
3.63397048257e-06
1.53191108364e-08
3.63164031751e-06
1.5058232286e-08
3.62933103633e-06
1.48363075692e-08
3.62703520342e-06
1.46601699709e-08
3.62474447148e-06
1.45374072136e-08
3.6224494658e-06
1.44763759565e-08
3.62013975468e-06
1.44861624719e-08
3.61780373053e-06
1.45766832831e-08
3.61542865124e-06
1.47587120584e-08
3.61300043832e-06
1.50438471106e-08
3.61050374279e-06
1.54447434593e-08
3.6079218323e-06
1.59750563623e-08
3.60523654943e-06
1.6649628874e-08
3.60242826936e-06
1.74845912298e-08
3.59947587916e-06
1.84975506212e-08
3.59635678718e-06
1.97078158458e-08
3.59304688352e-06
2.11366236104e-08
3.58952062229e-06
2.28074789104e-08
3.58575112554e-06
2.47465646744e-08
3.58171032377e-06
2.69830672127e-08
3.57736920959e-06
2.95498260474e-08
3.57269826103e-06
3.24838589721e-08
3.56766810644e-06
3.58270831055e-08
3.56225021453e-06
3.96270293151e-08
3.55641837075e-06
4.39377377844e-08
3.5501502646e-06
4.88206186497e-08
3.54343010402e-06
5.43453782875e-08
3.53625198925e-06
6.05908964429e-08
3.52862468125e-06
6.76459347914e-08
3.52057796593e-06
7.56095553982e-08
3.51217129076e-06
8.4591006834e-08
3.50350494926e-06
9.47085828912e-08
3.49473481261e-06
1.0608713987e-07
3.48609031355e-06
1.18853178596e-07
3.47789655408e-06
1.33126822272e-07
3.47059897409e-06
1.49008845763e-07
3.46478843558e-06
1.6656123665e-07
3.4612210882e-06
1.8577891551e-07
3.46082273124e-06
2.0655064673e-07
3.46466035976e-06
2.28607736062e-07
3.4738545287e-06
2.51462487349e-07
3.48939966889e-06
2.74345691374e-07
3.51186530124e-06
2.96166437689e-07
3.54099076409e-06
3.15538931224e-07
3.30941434282e-07
3.57529742256e-06
3.99984271408e-06
-1.82161947412e-09
4.00020833422e-06
-1.64617194191e-09
4.00033100971e-06
1.2021588463e-09
3.99988654442e-06
6.60966446643e-09
3.9986226544e-06
1.36671117789e-08
3.99642973252e-06
2.09700507592e-08
3.99335935132e-06
2.71775494349e-08
3.98958802244e-06
3.14679723539e-08
3.98535117886e-06
3.36806629892e-08
3.98087897713e-06
3.41664264009e-08
3.97635440761e-06
3.35108405269e-08
3.97189839227e-06
3.22883905164e-08
3.9675750943e-06
3.09244605866e-08
3.96340714872e-06
2.96630493673e-08
3.959392198e-06
2.85998316953e-08
3.9555162829e-06
2.77376394447e-08
3.951762319e-06
2.70355693036e-08
3.94811471816e-06
2.64428042138e-08
3.94456096788e-06
2.591532937e-08
3.94109179681e-06
2.54216522679e-08
3.93770058947e-06
2.49424186781e-08
3.93438265513e-06
2.44673172174e-08
3.93113461189e-06
2.39920164258e-08
3.92795383503e-06
2.35155326064e-08
3.92483817564e-06
2.30386102696e-08
3.92178571635e-06
2.25626973968e-08
3.91879461923e-06
2.20893449943e-08
3.91586300774e-06
2.16201732221e-08
3.91298886691e-06
2.1156829155e-08
3.91017002813e-06
2.0701105003e-08
3.90740401829e-06
2.02550557777e-08
3.90468805165e-06
1.98210979922e-08
3.90201891382e-06
1.94021449524e-08
3.89939293314e-06
1.90016630857e-08
3.89680588097e-06
1.86237263726e-08
3.89425293463e-06
1.82731284016e-08
3.89172859551e-06
1.79552433732e-08
3.88922667177e-06
1.76762991292e-08
3.88674020112e-06
1.7443181375e-08
3.88426137211e-06
1.72635329915e-08
3.8817815671e-06
1.71458114107e-08
3.8792912089e-06
1.70992077038e-08
3.87677984166e-06
1.71338108079e-08
3.87423598481e-06
1.72604691506e-08
3.87164718282e-06
1.74909263468e-08
3.86899995459e-06
1.78378757124e-08
3.86627975065e-06
1.83149300228e-08
3.86347101783e-06
1.89368267173e-08
3.86055715051e-06
1.97193994461e-08
3.85752055697e-06
2.06797678089e-08
3.85434272952e-06
2.18364792848e-08
3.85100434009e-06
2.32096387565e-08
3.84748537557e-06
2.48211877977e-08
3.84376539365e-06
2.66950711209e-08
3.83982370393e-06
2.88576177238e-08
3.83563997906e-06
3.13377927133e-08
3.83119460333e-06
3.4167606347e-08
3.82646956188e-06
3.73825412367e-08
3.82144944306e-06
4.1021913365e-08
3.81612272002e-06
4.51293245302e-08
3.81048363979e-06
4.97530875876e-08
3.80453452721e-06
5.49464967601e-08
3.79828893198e-06
6.07680780615e-08
3.79177556949e-06
6.72815042948e-08
3.78504349518e-06
7.45552383695e-08
3.77816855756e-06
8.26615865989e-08
3.77126130546e-06
9.16750060285e-08
3.76447674753e-06
1.01669410815e-07
3.75802557194e-06
1.12713942352e-07
3.75218676453e-06
1.24866870748e-07
3.74732056449e-06
1.38167023743e-07
3.74388020717e-06
1.52622229327e-07
3.74241914912e-06
1.68194175634e-07
3.74358931816e-06
1.84779442166e-07
3.74812250911e-06
2.02186839361e-07
3.75678564341e-06
2.20112579273e-07
3.77029792625e-06
2.38116715825e-07
3.7892004528e-06
2.55608141423e-07
3.81367962565e-06
2.71850624624e-07
3.84337241929e-06
2.86007823217e-07
2.97245291913e-07
3.87722850271e-06
4.28002066635e-06
-2.14166970244e-09
4.28045553497e-06
-2.07982168144e-09
4.28069530458e-06
9.64723569931e-10
4.28041441596e-06
6.894025363e-09
4.27934252365e-06
1.47437192877e-08
4.27733698403e-06
2.29815922247e-08
4.27441205775e-06
3.01098749326e-08
4.27071505112e-06
3.51740029769e-08
4.2664681583e-06
3.79382409238e-08
4.26190518317e-06
3.87419156794e-08
4.25722496148e-06
3.82056190056e-08
4.25256967461e-06
3.69604585641e-08
4.24802418113e-06
3.54890992971e-08
4.24362764551e-06
3.40812840731e-08
4.23938886775e-06
3.28631866883e-08
4.23529992754e-06
3.18540023083e-08
4.23134609694e-06
3.10199979936e-08
4.22751163349e-06
3.0311225261e-08
4.22378256788e-06
2.96818417198e-08
4.22014769072e-06
2.90977161894e-08
4.21659836964e-06
2.8536781427e-08
4.21312812097e-06
2.79866082079e-08
4.20973201659e-06
2.74413088613e-08
4.20640619787e-06
2.68988728154e-08
4.20314751205e-06
2.63593125058e-08
4.19995317177e-06
2.5823574179e-08
4.1968206448e-06
2.52930493073e-08
4.19374742446e-06
2.47692806056e-08
4.19073091599e-06
2.42539847721e-08
4.18776840758e-06
2.3749131698e-08
4.18485686272e-06
2.32569678502e-08
4.18199296155e-06
2.27802732154e-08
4.17917293098e-06
2.23223081186e-08
4.17639255742e-06
2.18870298586e-08
4.17364710056e-06
2.1479052434e-08
4.17093118581e-06
2.11036278305e-08
4.16823890584e-06
2.07668711591e-08
4.16556362997e-06
2.04755506116e-08
4.16289805516e-06
2.02372436596e-08
4.16023417969e-06
2.00603277806e-08
4.15756324726e-06
1.99539484118e-08
4.15487579671e-06
1.99280835052e-08
4.15216158566e-06
1.99934916708e-08
4.14940961736e-06
2.01617955803e-08
4.14660820192e-06
2.04454923616e-08
4.14374486384e-06
2.08579037257e-08
4.14080651997e-06
2.14134126359e-08
4.13777941993e-06
2.21273093606e-08
4.13464931426e-06
2.30159435153e-08
4.13140154328e-06
2.40968726744e-08
4.12802119484e-06
2.53888648864e-08
4.1244933784e-06
2.69120354828e-08
4.1208034031e-06
2.86880292678e-08
4.11693733054e-06
3.07401906766e-08
4.11288222164e-06
3.30936494107e-08
4.1086270438e-06
3.57756569242e-08
4.10416328391e-06
3.88156113424e-08
4.09948603717e-06
4.22453730453e-08
4.09459537437e-06
4.60993168062e-08
4.08949794989e-06
5.04144385994e-08
4.08420911015e-06
5.52303575339e-08
4.07875555316e-06
6.05890751963e-08
4.0731784381e-06
6.65345910122e-08
4.06753737918e-06
7.31121912157e-08
4.06191503162e-06
8.03672390164e-08
4.05642256841e-06
8.83435397901e-08
4.05120587018e-06
9.70808967261e-08
4.04645224867e-06
1.06611774114e-07
4.04239732601e-06
1.16957008185e-07
4.03933140304e-06
1.28120170782e-07
4.03760423065e-06
1.40080667216e-07
4.0376264418e-06
1.52785488674e-07
4.03986524614e-06
1.66139717499e-07
4.04483144023e-06
1.7999635335e-07
4.05305376074e-06
1.94146266926e-07
4.0650367142e-06
2.08309953204e-07
4.08119869562e-06
2.22133554346e-07
4.10179095321e-06
2.35193079827e-07
4.1268053742e-06
2.47011765282e-07
4.15589106446e-06
2.5709594784e-07
2.64992552707e-07
4.18831582855e-06
4.57982201824e-06
-2.49135067203e-09
4.58032846472e-06