/*--------------------------------*- C++ -*----------------------------------*\
| =========                 |                                                 |
| \\      /  F ield         | OpenFOAM: The Open Source CFD Toolbox           |
|  \\    /   O peration     | Version:  2112                                  |
|   \\  /    A nd           | Website:  www.openfoam.com                      |
|    \\/     M anipulation  |                                                 |
\*---------------------------------------------------------------------------*/
FoamFile
{
    version     2.0;
    format      ascii;
    arch        "LSB;label=32;scalar=64";
    class       volScalarField;
    location    "0.8";
    object      T;
}
// * * * * * * * * * * * * * * * * * * * * * * * * * * * * * * * * * * * * * //

dimensions      [0 0 0 1 0 0 0];

internalField   nonuniform List<scalar> 
12013
(
300.000054166
300.000167325
300.00029271
300.000435589
300.000601699
300.000796948
300.001027878
300.001301399
300.001625077
300.002007022
300.002456014
300.002981471
300.003593499
300.004302879
300.005121072
300.006060207
300.007133063
300.008353041
300.009734134
300.011290887
300.013038354
300.014992051
300.017167903
300.019582191
300.022251496
300.02519264
300.028422632
300.031958609
300.035817783
300.040017386
300.044574622
300.049506621
300.054830394
300.0605628
300.06672051
300.073319981
300.080377437
300.087908855
300.095929955
300.104456198
300.113502797
300.123084727
300.133216748
300.143913432
300.155189204
300.167058387
300.179535256
300.192634109
300.206369338
300.220755525
300.235807542
300.251540672
300.267970744
300.285114296
300.30298876
300.321612675
300.341005939
300.361190112
300.382188764
300.404027894
300.426736442
300.450346897
300.474896049
300.500425912
300.526984883
300.554629201
300.583424832
300.613449923
300.644798062
300.677582716
300.711943373
300.748054309
300.786137454
300.826481953
300.869475242
300.915655002
300.965801747
301.021117243
301.08360296
301.156957992
301.248976654
300.000054153
300.000167285
300.000292642
300.000435487
300.000601559
300.000796763
300.001027639
300.001301096
300.001624699
300.002006555
300.002455441
300.002980774
300.003592656
300.004301865
300.005119859
300.006058764
300.007131353
300.008351024
300.009731764
300.011288114
300.013035122
300.014988299
300.017163562
300.019577185
300.022245742
300.025186048
300.028415103
300.031950034
300.035808043
300.040006353
300.044562155
300.049492568
300.054814588
300.06054506
300.06670064
300.073297768
300.080352649
300.087881238
300.095899233
300.104422072
300.113464938
300.123042776
300.13317031
300.143862076
300.155132453
300.166995716
300.179466084
300.19255779
300.206285156
300.22066268
300.235705137
300.2514277
300.267846069
300.284976632
300.302836643
300.321444431
300.340819648
300.360983554
300.38195936
300.403772633
300.426451778
300.450028629
300.474539154
300.500024333
300.526531242
300.554114413
300.582837565
300.612775843
300.644018742
300.676674027
300.710873033
300.74677803
300.784592632
300.824576831
300.867069155
300.912519801
300.961539961
301.014970283
301.073948098
301.139830843
301.21327218
300.000054126
300.000167198
300.000292491
300.000435262
300.000601248
300.000796352
300.001027109
300.001300426
300.001623862
300.00200552
300.002454172
300.002979229
300.003590787
300.004299617
300.005117171
300.006055563
300.007127561
300.00834655
300.009726509
300.011281967
300.013027959
300.014979982
300.017153941
300.019566095
300.022233001
300.025171456
300.028398441
300.031931066
300.03578651
300.039981973
300.044534623
300.049461551
300.054779725
300.06050596
300.066656877
300.07324888
300.080298134
300.08782055
300.095831776
300.104347197
300.113381937
300.122950874
300.133068656
300.143749736
300.155008398
300.16685881
300.17931507
300.192391272
300.206101579
300.220460308
300.235482025
300.251181657
300.267574625
300.284676985
300.302505603
300.321078352
300.340414339
300.360534174
300.381460287
300.403217293
300.425832441
300.449336132
300.473762554
300.499150445
300.525544028
300.552994156
300.581559736
300.611309521
300.642324362
300.674700092
300.708551203
300.744015551
300.781260302
300.820489149
300.861950229
300.905942185
300.952810519
301.002911637
301.05648325
301.113267018
301.17155993
300.000054079
300.000167054
300.000292238
300.00043489
300.000600731
300.000795671
300.001026229
300.001299314
300.001622471
300.0020038
300.002452063
300.002976662
300.003587683
300.004295884
300.005112704
300.006050247
300.007121261
300.00833912
300.009717782
300.011271757
300.013016062
300.014966171
300.017137966
300.01954768
300.022211845
300.025147228
300.028370781
300.03189958
300.035750769
300.039941511
300.044488933
300.049410082
300.054721881
300.060441091
300.066584278
300.073167786
300.080207714
300.0877199
300.095719911
300.104223042
300.113244319
300.122798508
300.132900137
300.143563516
300.154802775
300.166631905
300.179064803
300.192115336
300.205797405
300.220125028
300.235112425
300.250774127
300.26712509
300.284180832
300.301957584
300.320472474
300.339743723
300.359790887
300.380635128
300.402299531
300.424809476
300.448193071
300.47248166
300.497710423
300.523919077
300.551152712
300.579462762
300.60890816
300.639556655
300.671486297
300.704787002
300.739561972
300.775928474
300.814016809
300.853965025
300.895904084
300.939922859
300.985992984
301.033820112
301.082579122
301.130531172
300.00005401
300.000166842
300.000291866
300.000434339
300.000599968
300.000794665
300.00102493
300.001297671
300.001620418
300.002001262
300.002448951
300.002972874
300.003583101
300.004290374
300.005106112
300.0060424
300.007111964
300.008328153
300.009704901
300.011256689
300.012998504
300.014945789
300.017114391
300.019520506
300.022180626
300.025111478
300.028329967
300.031853121
300.035698033
300.03988181
300.044421519
300.049334143
300.054636535
300.060345381
300.066477165
300.073048141
300.08007431
300.087571402
300.095554866
300.104039867
300.113041283
300.122573719
300.132651521
300.143288796
300.154499447
300.166297203
300.178695671
300.191708383
300.205348862
300.219630689
300.234567585
300.250173504
300.266462733
300.28345001
300.301150658
300.31958073
300.338757186
300.358698077
300.379422766
300.400952173
300.423309055
300.446518311
300.470607341
300.49560642
300.521549122
300.548472758
300.57641882
300.605433381
300.635567368
300.666876564
300.69942105
300.733263599
300.768466136
300.805082771
300.843146868
300.882647987
300.923492329
300.965438729
301.00800536
301.050359744
301.091250033
300.000053915
300.000166548
300.00029135
300.000433577
300.000598913
300.000793272
300.001023133
300.001295398
300.001617577
300.00199775
300.002444645
300.002967633
300.003576761
300.00428275
300.005096993
300.006031544
300.007099103
300.008312983
300.009687083
300.011235847
300.012974219
300.014917598
300.017081784
300.019482922
300.022137449
300.025062034
300.02827352
300.031788868
300.0356251
300.039799244
300.044328287
300.049229121
300.054518503
300.060213015
300.066329028
300.072882672
300.079889813
300.087366032
300.095326615
300.103786545
300.112760502
300.122262868
300.132307739
300.142908944
300.154080074
300.165834504
300.178185443
300.191145971
300.204729094
300.218947806
300.233815152
300.249344308
300.265548663
300.282441914
300.300038168
300.318352057
300.337398867
300.35719467
300.377756474
300.399102384
300.421251767
300.444225417
300.468045724
300.492736815
300.518324655
300.544837078
300.572303673
300.600755461
300.630224206
300.660741146
300.692334801
300.725027326
300.758828596
300.793726859
300.829674431
300.866566699
300.904213054
300.942300151
300.980353213
301.01771328
301.053566192
300.000053788
300.000166158
300.000290666
300.000432563
300.000597511
300.000791422
300.001020746
300.001292378
300.001613805
300.001993087
300.002438927
300.002960673
300.003568343
300.004272627
300.005084884
300.006017131
300.007082028
300.008292843
300.009663429
300.011208178
300.012941981
300.014880177
300.017038502
300.019433035
300.02208014
300.024996409
300.028198602
300.031703591
300.035528303
300.039689665
300.044204552
300.049089741
300.054361859
300.06003735
300.066132436
300.072663082
300.079644975
300.087093502
300.095023732
300.103450411
300.112387955
300.121850453
300.131851677
300.142405092
300.153523877
300.165220952
300.177509006
300.190400532
300.203907872
300.218043258
300.232818872
300.248246892
300.264339563
300.281109259
300.298568552
300.316730288
300.33560766
300.355214283
300.375564264
300.396672267
300.418553556
300.441224009
300.464700097
300.488998783
300.514137324
300.540132915
300.567002111
300.594759914
300.623418378
300.652984533
300.683457327
300.714823217
300.747049939
300.780077886
300.813808688
300.848090993
300.882704652
300.917346388
300.951622747
300.985059645
301.017141721
300.000053624
300.000165655
300.000289782
300.000431255
300.000595703
300.000789032
300.001017665
300.00128848
300.001608935
300.001987067
300.002431547
300.002951691
300.00355748
300.004259564
300.005069258
300.005998534
300.007059995
300.008266858
300.009632911
300.011172483
300.012900393
300.014831904
300.016982671
300.019368687
300.022006222
300.024911767
300.028101977
300.031593609
300.035403468
300.039548349
300.044044987
300.048910003
300.054159865
300.059810836
300.065878946
300.07237995
300.079329306
300.086742151
300.094633278
300.103017129
300.111907787
300.121318968
300.131264032
300.141755982
300.152807486
300.164430884
300.176638215
300.18944124
300.202851472
300.216880203
300.231538542
300.246837446
300.262787758
300.279400242
300.296685615
300.314654575
300.33331782
300.352686061
300.372770008
300.393580338
300.415127616
300.437422177
300.460473917
300.484291991
300.508884369
300.53425719
300.560413859
300.587353786
300.615070653
300.643550068
300.672766443
300.702678928
300.733226283
300.764320672
300.795840592
300.827623659
300.859460782
300.891094367
300.922223802
300.952521142
300.98165958
300.000053417
300.000165017
300.000288665
300.000429599
300.000593416
300.000786011
300.001013771
300.001283553
300.00160278
300.001979459
300.00242222
300.002940339
300.003543752
300.004243058
300.005049516
300.005975037
300.007032161
300.008234032
300.009594362
300.011127397
300.012847866
300.014770938
300.016912165
300.019287429
300.021912883
300.024804894
300.027979979
300.031454754
300.035245868
300.039369951
300.04384356
300.048683126
300.053904907
300.059524947
300.065559031
300.072022654
300.078930986
300.086298851
300.0941407
300.102470599
300.111302213
300.120648801
300.130523213
300.140937888
300.15190486
300.163435766
300.175541854
300.188233999
300.201522711
300.215418155
300.229930158
300.245068227
300.26084155
300.277259005
300.294329149
300.312060202
300.330460014
300.34953601
300.369295104
300.389743577
300.410886897
300.432729481
300.455274351
300.478522688
300.502473222
300.527121438
300.552458527
300.578470047
300.605134208
300.632419745
300.66028331
300.688666422
300.717492049
300.746661076
300.776049092
300.805504199
300.834846853
300.863873135
300.892362722
300.920091845
300.946850646
300.000053159
300.000164224
300.000287276
300.000427539
300.000590573
300.000782252
300.001008927
300.001277424
300.001595127
300.001969998
300.002410624
300.002926227
300.003526687
300.004222539
300.005024977
300.005945834
300.00699757
300.00819324
300.009546461
300.011071377
300.012782607
300.0146952
300.016824581
300.019186497
300.021796954
300.024672164
300.027828477
300.031282331
300.035050183
300.039148459
300.043593496
300.048401489
300.053588442
300.059170124
300.065162022
300.071579309
300.078436804
300.08574895
300.093529779
300.101792898
300.11055147
300.1198182
300.129605322
300.139924597
300.150787306
300.162204245
300.174185729
300.186741583
300.199881147
300.213613267
300.22794629
300.242888051
300.258445852
300.274626434
300.291435934
300.308879823
300.326962826
300.345688811
300.365060642
300.385079989
300.40574707
300.427060336
300.449016052
300.471607773
300.494825688
300.518655799
300.543078928
300.568069506
300.593594163
300.619610106
300.646063326
300.672886744
300.699998451
300.72730032
300.754677364
300.781998284
300.809117693
300.835880456
300.86212843
300.887709211
300.91248597
300.000052842
300.000163249
300.00028557
300.000425008
300.000587081
300.000777636
300.001002981
300.001269901
300.001585732
300.001958387
300.002396393
300.002908911
300.003505749
300.004197367
300.004994874
300.005910013
300.006955144
300.008143214
300.009487724
300.011002691
300.0127026
300.014602354
300.016717225
300.019062792
300.021654883
300.024509518
300.027642848
300.031071089
300.034810468
300.038877161
300.043287237
300.048056605
300.05320096
300.058735738
300.064676068
300.071036732
300.077832131
300.085076245
300.092782609
300.100964283
300.109633832
300.118803303
300.128484208
300.138687512
300.149423614
300.160702337
300.172532912
300.184923963
300.197883491
300.211418852
300.225536726
300.240243085
300.255543149
300.271441325
300.287941132
300.305045109
300.322754694
300.341070073
300.35998999
300.379511516
300.399629757
300.420337501
300.441624789
300.463478396
300.48588122
300.508811568
300.532242332
300.556140077
300.580464054
300.605165188
300.630185108
300.655455339
300.680896786
300.706419717
300.731924468
300.757303058
300.782441884
300.807225497
300.831541377
300.855285298
300.878366676
300.000052458
300.000162063
300.000283498
300.000421932
300.000582839
300.00077203
300.00099576
300.001260766
300.001574327
300.001944292
300.00237912
300.002887894
300.00348034
300.004166823
300.004958351
300.005866558
300.006903681
300.008082539
300.009416491
300.010919403
300.012605596
300.0144898
300.016587096
300.018912864
300.021482718
300.024312448
300.027417959
300.030815207
300.034520137
300.038548628
300.042916427
300.047639101
300.052731974
300.058210087
300.064088142
300.070380459
300.07710094
300.084263024
300.09187966
300.099963267
300.108525714
300.117578285
300.127131658
300.137195883
300.147780353
300.158893785
300.17054419
300.182738847
300.195484271
300.208786175
300.222649423
300.237077977
300.252074832
300.267641933
300.28378008
300.300488808
300.317766246
300.335608942
300.35401166
300.372967134
300.39246578
300.412495359
300.43304059
300.454082705
300.475598957
300.497562085
300.519939739
300.542693913
300.565780393
300.589148303
300.612739789
300.636489938
300.66032703
300.684173205
300.707945652
300.731558365
300.754924464
300.777958984
300.80058196
300.822721546
300.844316837
300.000051995
300.000160636
300.000281004
300.000418229
300.000577735
300.000765282
300.00098707
300.001249776
300.001560607
300.001927339
300.002358348
300.002862624
300.003449792
300.004130107
300.004914455
300.005814336
300.006841845
300.008009645
300.009330926
300.010819372
300.01248911
300.01435466
300.016430879
300.018732908
300.021276105
300.024075986
300.027148165
300.030508286
300.034171964
300.03815472
300.042471924
300.047138736
300.052170048
300.057580432
300.06338409
300.069594804
300.076225895
300.083290175
300.090799914
300.098766797
300.107201895
300.116115625
300.125517722
300.135417206
300.145822349
300.15674064
300.16817875
300.180142493
300.192636779
300.205665565
300.219231795
300.233337333
300.247982881
300.26316789
300.278890442
300.295147132
300.311932909
300.329240915
300.347062276
300.365385886
300.384198148
300.403482701
300.423220108
300.443387532
300.463958404
300.484902092
300.506183583
300.527763235
300.549596594
300.571634343
300.593822424
300.616102372
300.63841191
300.66068584
300.68285724
300.704858948
300.726625294
300.748093967
300.769207895
300.789916989
300.810179583
300.000051442
300.000158931
300.000278026
300.000413808
300.00057164
300.000757228
300.0009767
300.001236661
300.001544237
300.001907117
300.002333573
300.00283249
300.00341337
300.004086337
300.004862133
300.005752102
300.006768167
300.007922805
300.009229009
300.010700246
300.012350413
300.014193783
300.016244948
300.018518766
300.021030291
300.023794721
300.026827323
300.030143378
300.033758109
300.037686623
300.041943847
300.046544467
300.051502871
300.05683309
300.062548749
300.06866301
300.075188528
300.0821374
300.089521126
300.097350564
300.105635885
300.114386544
300.123611229
300.133317829
300.143513393
300.154204083
300.165395136
300.17709081
300.189294335
300.20200785
300.215232336
300.228967544
300.243211909
300.257962447
300.273214655
300.28896238
300.305197685
300.321910698
300.339089439
300.356719645
300.374784576
300.393264815
300.412138068
300.431378972
300.450958923
300.470845932
300.491004538
300.511395794
300.531977347
300.552703635
300.573526233
300.594394356
300.615255535
300.636056463
300.656743986
300.677266221
300.69757373
300.717620699
300.737366025
300.756774248
300.775816255
300.000050787
300.00015691
300.000274495
300.000408566
300.000564417
300.000747683
300.000964413
300.001221125
300.001524851
300.001883171
300.002304243
300.002796822
300.003370268
300.004034551
300.004800241
300.005678498
300.006681046
300.007820142
300.009108547
300.010559475
300.012186552
300.014003761
300.016025385
300.01826595
300.020740159
300.023462832
300.026448839
300.029713033
300.033270188
300.03713493
300.041321673
300.045844561
300.050717402
300.055953611
300.061566153
300.06756749
300.073969525
300.080783556
300.088020223
300.095689464
300.103800468
300.112361633
300.121380516
300.13086379
300.140817203
300.151245522
300.162152488
300.173540761
300.185411863
300.197766115
300.210602566
300.223918924
300.237711467
300.251974958
300.266702546
300.281885661
300.297513902
300.313574921
300.330054298
300.346935421
300.364199367
300.381824791
300.399787835
300.418062054
300.436618383
300.455425152
300.474448147
300.493650761
300.51299421
300.532437857
300.551939622
300.571456501
300.590945177
300.610362704
300.629667255
300.648818887
300.667780299
300.686517527
300.705000551
300.723203766
300.741106289
300.000050015
300.000154529
300.000270338
300.000402395
300.000555914
300.000736448
300.000949954
300.001202847
300.001502048
300.001855012
300.002269761
300.002754897
300.003319617
300.003973707
300.004727541
300.005592063
300.006578761
300.007699641
300.008967189
300.010394328
300.011994369
300.013780957
300.015768017
300.01796969
300.020400275
300.023074156
300.026005744
300.029209404
300.03269939
300.03648978
300.040594407
300.045026795
300.049800099
300.054927039
300.060419843
300.06629019
300.072549152
300.079207142
300.086273863
300.093758255
300.101668447
300.110011707
300.118794395
300.128021915
300.137698662
300.147827978
300.158412093
300.169452076
300.180947776
300.192897761
300.205299257
300.21814808
300.231438562
300.245163487
300.259314004
300.273879558
300.28884781
300.304204565
300.3199337
300.336017108
300.352434649
300.369164124
300.386181273
300.403459801
300.420971448
300.438686095
300.456571935
300.474595686
300.492722873
300.510918168
300.529145784
300.547369929
300.565555285
300.583667524
300.601673821
300.619543353
300.637247751
300.654761501
300.672062253
300.689131037
300.705952377
300.000049112
300.000151743
300.000265473
300.000395174
300.000545969
300.00072331
300.000933049
300.001181483
300.001475401
300.001822114
300.002229486
300.002705943
300.003260489
300.003902701
300.004642722
300.005491245
300.00645949
300.00755917
300.008802456
300.010201931
300.011770545
300.013521557
300.015468478
300.017625011
300.020004987
300.022622297
300.025490827
300.028624388
300.032036648
300.035741064
300.039750815
300.044078734
300.048737246
300.053738299
300.05909331
300.064813098
300.070907831
300.077386967
300.084259202
300.091532414
300.099213614
300.107308896
300.115823382
300.12476118
300.13412533
300.143917754
300.154139211
300.16478924
300.175866116
300.18736679
300.199286844
300.211620436
300.224360246
300.237497428
300.251021561
300.264920608
300.279180873
300.293786979
300.308721845
300.323966689
300.33950104
300.355302779
300.371348201
300.387612113
300.404067957
300.42068798
300.437443429
300.454304797
300.471242091
300.488225147
300.505223959
300.522209034
300.539151745
300.556024694
300.572802039
300.58945981
300.605976161
300.622331587
300.638509069
300.654494157
300.670274982
300.000048062
300.000148503
300.000259818
300.00038678
300.000534408
300.000708042
300.000913409
300.001156669
300.001444459
300.001783926
300.002182748
300.00264915
300.003191915
300.003820376
300.004544414
300.005374434
300.006321345
300.007396526
300.008611786
300.009979323
300.011511673
300.013221654
300.015122308
300.017226841
300.019548554
300.022100782
300.024896819
300.027949854
300.031272899
300.034878722
300.038779775
300.042988127
300.047515402
300.052372709
300.057570581
300.063118913
300.069026907
300.075303008
300.081954853
300.088989218
300.096411964
300.104227988
300.112441173
300.121054345
300.130069219
300.139486362
300.149305145
300.159523702
300.170138887
300.181146239
300.192539941
300.204312789
300.216456162
300.228959996
300.24181277
300.255001491
300.268511701
300.282327481
300.296431487
300.310804986
300.325427922
300.340278998
300.355335781
300.370574834
300.385971868
300.401501922
300.417139567
300.432859124
300.44863491
300.464441484
300.480253906
300.496047998
300.511800586
300.527489732
300.543094946
300.558597359
300.573979862
300.589227207
300.604326067
300.619265049
300.634034664
300.000046848
300.000144758
300.000253282
300.000377082
300.000521054
300.000690411
300.000890734
300.001128029
300.001408759
300.00173988
300.002128858
300.002583691
300.003112904
300.003725557
300.004431228
300.005239995
300.006162415
300.007209484
300.008392605
300.009723537
300.011214349
300.012877361
300.014725089
300.016770177
300.019025338
300.021503281
300.024216645
300.027177929
300.030399422
300.033893132
300.037670717
300.041743419
300.046121994
300.050816648
300.055836976
300.061191896
300.066889596
300.07293747
300.079342071
300.086109054
300.093243127
300.100748005
300.108626364
300.1168798
300.125508788
300.134512641
300.143889485
300.153636217
300.163748487
300.174220668
300.185045841
300.196215779
300.207720947
300.219550497
300.23169228
300.24413287
300.256857591
300.269850566
300.283094772
300.296572118
300.310263532
300.324149068
300.338208033
300.352419124
300.366760582
300.381210364
300.395746323
300.410346393
300.424988786
300.439652181
300.454315914
300.468960156
300.483566075
300.498115984
300.512593464
300.526983455
300.541272332
300.555447938
300.569499599
300.583418109
300.597195683
300.000045454
300.000140457
300.000245777
300.000365946
300.000505726
300.000670178
300.000864722
300.001095186
300.001367834
300.001689406
300.002067131
300.00250874
300.003022475
300.00361708
300.004301793
300.005086325
300.005980832
300.006995883
300.008142421
300.009431714
300.010875309
300.01248497
300.014272625
300.016250299
300.018430049
300.020823898
300.023443763
300.02630139
300.029408278
300.032775615
300.036414205
300.040334401
300.044546041
300.049058379
300.053880027
300.059018893
300.064482124
300.07027605
300.076406137
300.08287693
300.089692016
300.096853978
300.104364353
300.112223605
300.120431085
300.128985008
300.137882433
300.147119239
300.156690117
300.166588562
300.176806876
300.187336168
300.198166378
300.209286296
300.220683597
300.232344885
300.244255748
300.256400827
300.268763889
300.281327923
300.294075241
300.306987589
300.320046276
300.333232303
300.346526507
300.359909703
300.373362836
300.386867127
300.400404218
300.413956312
300.427506298
300.441037873
300.45453564
300.467985193
300.481373187
300.494687381
300.507916669
300.521051088
300.534081809
300.54700111
300.559802338
300.000043863
300.000135549
300.000237214
300.000353246
300.000488247
300.000647114
300.000835082
300.001057774
300.001321237
300.001631961
300.001996908
300.002423513
300.002919696
300.003493848
300.004154827
300.004911928
300.005774864
300.006753727
300.007858947
300.009101248
300.010491598
300.01204115
300.013761182
300.01566304
300.017758065
300.020057532
300.022572578
300.025314133
300.028292854
300.031519051
300.035002624
300.038752994
300.042779036
300.047089023
300.051690561
300.056590531
300.06179504
300.067309365
300.073137908
300.079284153
300.085750626
300.092538861
300.099649365
300.107081598
300.114833948
300.122903715
300.131287105
300.13997922
300.148974068
300.158264565
300.167842556
300.177698841
300.187823202
300.198204451
300.208830477
300.219688307
300.23076417
300.242043584
300.253511433
300.265152065
300.276949398
300.288887021
300.300948312
300.313116556
300.32537506
300.337707273
300.350096903
300.362528029
300.374985206
300.387453562
300.399918884
300.412367696
300.424787318
300.437165916
300.449492536
300.461757122
300.473950523
300.486064488
300.498091642
300.51002546
300.52186023
300.00004206
300.000129988
300.000227513
300.000338859
300.000468455
300.000621005
300.000801542
300.00101546
300.001268557
300.00156705
300.001917598
300.002327308
300.00280374
300.003354894
300.003989203
300.004715506
300.005543023
300.006481317
300.007540258
300.008729972
300.010060791
300.011543201
300.013187776
300.015005125
300.017005817
300.019200324
300.021598948
300.024211756
300.027048512
300.030118608
300.033431001
300.036994149
300.040815947
300.04490367
300.049263913
300.053902546
300.058824655
300.064034502
300.069535486
300.075330099
300.081419902
300.087805492
300.094486486
300.1014615
300.108728141
300.116283003
300.12412167
300.132238724
300.140627761
300.149281413
300.15819138
300.167348468
300.176742633
300.186363034
300.196198094
300.206235569
300.216462618
300.226865887
300.237431592
300.248145612
300.258993582
300.269960987
300.28103326
300.29219588
300.303434464
300.314734859
300.326083227
300.337466128
300.348870586
300.360284161
300.371694997
300.383091871
300.394464224
300.405802192
300.417096616
300.428339049
300.439521753
300.45063769
300.461680501
300.472644485
300.483524567
300.000040032
300.000123732
300.000216602
300.000322682
300.000446207
300.000591671
300.000763875
300.000967963
300.001209455
300.001494265
300.00182872
300.002219561
300.002673952
300.003199463
300.003804059
300.004496078
300.005284201
300.006177418
300.007184984
300.008316377
300.009581246
300.010989353
300.012550521
300.014274566
300.016171241
300.018250166
300.020520766
300.022992204
300.025673318
300.028572554
300.031697906
300.035056857
300.038656317
300.042502571
300.046601231
300.050957181
300.055574541
300.060456623
300.065605902
300.071023981
300.076711575
300.082668487
300.088893596
300.095384858
300.102139297
300.109153017
300.116421216
300.123938199
300.131697414
300.139691476
300.147912213
300.156350709
300.164997356
300.173841914
300.182873571
300.192081015
300.201452506
300.21097595
300.220638977
300.230429028
300.240333427
300.250339469
300.260434495
300.270605974
300.280841569
300.291129213
300.301457167
300.311814082
300.322189045
300.332571623
300.342951898
300.353320494
300.363668597
300.373987965
300.384270932
300.394510406
300.40469986
300.414833318
300.424905337
300.434910982
300.444845803
300.000037768
300.00011675
300.000204428
300.000304638
300.000421401
300.000558978
300.000721917
300.000915085
300.001143697
300.001413334
300.001729958
300.002099913
300.002529927
300.003027104
300.0035989
300.004253111
300.004997835
300.005841441
300.006792527
300.007859876
300.009052405
300.010379111
300.011849018
300.013471112
300.015254287
300.017207277
300.0193386
300.02165649
300.024168839
300.026883138
300.029806416
300.032945186
300.036305395
300.03989237
300.043710777
300.047764579
300.052057
300.05659049
300.061366706
300.066386486
300.071649833
300.077155912
300.08290304
300.088888694
300.095109517
300.101561336
300.108239181
300.115137315
300.122249266
300.129567866
300.137085298
300.144793143
300.152682438
300.160743731
300.168967143
300.177342436
300.185859078
300.194506311
300.203273219
300.212148797
300.22112202
300.230181903
300.239317567
300.248518296
300.257773588
300.267073211
300.276407241
300.285766102
300.295140598
300.304521943
300.313901779
300.323272189
300.332625713
300.34195535
300.351254555
300.36051724
300.369737763
300.378910921
300.388031929
300.397096411
300.40610038
300.000035263
300.000109025
300.000190961
300.000284687
300.000393986
300.000522865
300.000675595
300.000856743
300.001071194
300.001324165
300.001621223
300.001968283
300.002371605
300.002837786
300.003373741
300.003986682
300.004684086
300.005473662
300.00636331
300.00736108
300.008475118
300.009713621
300.011084779
300.012596719
300.014257448
300.016074795
300.018056353
300.020209419
300.022540941
300.025057459
300.027765055
300.030669304
300.033775226
300.037087243
300.040609142
300.044344042
300.048294363
300.052461803
300.056847321
300.061451122
300.066272652
300.071310594
300.076562876
300.08202668
300.087698455
300.093573944
300.099648209
300.10591566
300.112370099
300.119004755
300.125812335
300.132785069
300.139914765
300.147192865
300.1546105
300.162158547
300.16982769
300.177608477
300.185491378
300.19346684
300.201525345
300.209657454
300.217853864
300.226105444
300.234403283
300.24273872
300.251103378
300.259489192
300.267888427
300.276293699
300.284697985
300.293094634
300.301477367
300.30984028
300.318177841
300.326484883
300.334756594
300.342988508
300.351176494
300.359316737
300.367405727
300.000032517
300.00010056
300.000176209
300.000262839
300.000363978
300.000483359
300.000624957
300.000793011
300.000992051
300.001226908
300.001502725
300.001824956
300.002199365
300.002632012
300.003129237
300.003697634
300.004344028
300.005075435
300.005899028
300.00682209
300.007851972
300.008996045
300.010261644
300.01165602
300.013186282
300.014859348
300.016681889
300.018660274
300.020800521
300.023108251
300.025588636
300.028246357
300.031085569
300.034109859
300.03732222
300.04072502
300.044319983
300.048108174
300.052089983
300.056265125
300.060632634
300.065190873
300.069937543
300.074869696
300.07998376
300.085275562
300.090740359
300.096372873
300.102167326
300.108117485
300.114216704
300.120457973
300.126833961
300.13333707
300.139959484
300.146693217
300.153530164
300.160462146
300.167480962
300.174578429
300.181746424
300.188976923
300.19626204
300.203594054
300.210965441
300.218368898
300.225797367
300.233244047
300.240702414
300.24816623