/*--------------------------------*- C++ -*----------------------------------*\
| =========                 |                                                 |
| \\      /  F ield         | OpenFOAM: The Open Source CFD Toolbox           |
|  \\    /   O peration     | Version:  2112                                  |
|   \\  /    A nd           | Website:  www.openfoam.com                      |
|    \\/     M anipulation  |                                                 |
\*---------------------------------------------------------------------------*/
FoamFile
{
    version     2.0;
    format      ascii;
    arch        "LSB;label=32;scalar=64";
    class       volVectorField;
    location    "0.8";
    object      U;
}
// * * * * * * * * * * * * * * * * * * * * * * * * * * * * * * * * * * * * * //

dimensions      [0 1 -1 0 0 0 0];

internalField   nonuniform List<vector> 
12013
(
(0.100002820183 -5.4567793184e-07 0)
(0.100009190933 -2.94208082641e-07 0)
(0.100008774642 1.00290889954e-06 0)
(0.0999893870544 3.33175452803e-06 0)
(0.0999427782844 6.30959115274e-06 0)
(0.0998663779472 9.34567977956e-06 0)
(0.0997638641175 1.18799798058e-05 0)
(0.0996432195246 1.35829235839e-05 0)
(0.0995136344612 1.44147221823e-05 0)
(0.0993828895018 1.45540722478e-05 0)
(0.0992560459798 1.42729900651e-05 0)
(0.0991354113086 1.38260081137e-05 0)
(0.0990212610457 1.3391593909e-05 0)
(0.0989127563644 1.30599516764e-05 0)
(0.0988086968395 1.28543389732e-05 0)
(0.0987079798563 1.27575302716e-05 0)
(0.0986097961895 1.27366191964e-05 0)
(0.0985136527843 1.27591807436e-05 0)
(0.0984193112947 1.27990718303e-05 0)
(0.0983267035775 1.28390695159e-05 0)
(0.0982358573935 1.28692678915e-05 0)
(0.0981468439081 1.28858361647e-05 0)
(0.0980597448651 1.28870540968e-05 0)
(0.0979746363644 1.2873987003e-05 0)
(0.0978915818379 1.2848166816e-05 0)
(0.0978106300196 1.28099219182e-05 0)
(0.0977318166024 1.2761174644e-05 0)
(0.0976551663502 1.27031734623e-05 0)
(0.0975806949089 1.26370887977e-05 0)
(0.097508409627 1.25632065365e-05 0)
(0.0974383094183 1.24830338275e-05 0)
(0.097370384877 1.23978193767e-05 0)
(0.0973046165772 1.2309737591e-05 0)
(0.0972409724836 1.22208473579e-05 0)
(0.0971794056486 1.21340186872e-05 0)
(0.0971198523061 1.20538491223e-05 0)
(0.0970622285108 1.19840422034e-05 0)
(0.0970064271682 1.19313719959e-05 0)
(0.0969523136694 1.19021538228e-05 0)
(0.0968997218535 1.1904961452e-05 0)
(0.0968484513098 1.19496732965e-05 0)
(0.0967982630101 1.20472627089e-05 0)
(0.0967488754748 1.22110978169e-05 0)
(0.0966999598483 1.24561641501e-05 0)
(0.0966511350334 1.27995211148e-05 0)
(0.0966019628297 1.3260813722e-05 0)
(0.0965519431482 1.38627769956e-05 0)
(0.096500507513 1.46304456651e-05 0)
(0.0964470116031 1.55930225946e-05 0)
(0.0963907282738 1.67839297549e-05 0)
(0.0963308378993 1.82414143978e-05 0)
(0.0962664163872 2.00092474937e-05 0)
(0.096196422116 2.21384177655e-05 0)
(0.0961196805144 2.46884725084e-05 0)
(0.0960348641163 2.77286796257e-05 0)
(0.0959404680414 3.13409270324e-05 0)
(0.0958347796908 3.5622840509e-05 0)
(0.0957158413074 4.06914808661e-05 0)
(0.095581403349 4.6687507671e-05 0)
(0.0954288641116 5.37827153382e-05 0)
(0.0952551939752 6.2189066163e-05 0)
(0.095056838537 7.216877595e-05 0)
(0.0948295923038 8.40520833898e-05 0)
(0.0945684328723 9.82564997985e-05 0)
(0.0942673025651 0.000115320296594 0)
(0.0939188148451 0.000135942817218 0)
(0.0935138545955 0.000161048394354 0)
(0.093041026554 0.000191876057401 0)
(0.0924858812402 0.000230118173591 0)
(0.0918298079527 0.000278126008178 0)
(0.0910484261801 0.000339236720432 0)
(0.0901092031101 0.000418285400232 0)
(0.0889678508124 0.000522437876262 0)
(0.0875627780568 0.00066256758918 0)
(0.0858065110511 0.000855568255157 0)
(0.0835725989899 0.0011283108577 0)
(0.080673488115 0.00152456959 0)
(0.0768123856791 0.00211936020456 0)
(0.0715266081506 0.00306404059707 0)
(0.0642693137806 0.00478174473179 0)
(0.056115051528 0.00917820806446 0)
(0.100002797121 -1.68595000972e-06 0)
(0.100009387208 -9.30010245902e-07 0)
(0.100009346996 3.03624981541e-06 0)
(0.0999905094686 1.01723914659e-05 0)
(0.0999445771397 1.9306568066e-05 0)
(0.0998689026193 2.86254948333e-05 0)
(0.0997670770735 3.64114215864e-05 0)
(0.0996470144103 4.16500028055e-05 0)
(0.0995178688495 4.42155819507e-05 0)
(0.0993874183891 4.46549390517e-05 0)
(0.0992607461598 4.38015984221e-05 0)
(0.099140193219 4.24365683812e-05 0)
(0.0990260698239 4.11062644932e-05 0)
(0.0989175663863 4.00896269588e-05 0)
(0.0988135033108 3.94578623178e-05 0)
(0.0987127899795 3.91593111455e-05 0)
(0.0986146223606 3.90941105742e-05 0)
(0.0985185073939 3.91617725968e-05 0)
(0.0984242035917 3.92827269259e-05 0)
(0.0983316384116 3.94048865034e-05 0)
(0.0982408348852 3.94980909614e-05 0)
(0.0981518592929 3.95493532085e-05 0)
(0.0980647890827 3.95545815746e-05 0)
(0.0979796968515 3.95160230399e-05 0)
(0.0978966424262 3.94378893804e-05 0)
(0.0978156719576 3.93235069763e-05 0)
(0.0977368190696 3.91772484052e-05 0)
(0.0976601062635 3.9002729557e-05 0)
(0.0975855470304 3.88029232384e-05 0)
(0.0975131469322 3.8580652312e-05 0)
(0.097442903304 3.83390757548e-05 0)
(0.0973748050896 3.80829484985e-05 0)
(0.0973088311072 3.78177303971e-05 0)
(0.0972449475286 3.75510015371e-05 0)
(0.097183106145 3.72920602585e-05 0)
(0.0971232413331 3.70521952076e-05 0)
(0.0970652679971 3.68459484241e-05 0)
(0.0970090780453 3.66919785937e-05 0)
(0.096954535702 3.66113963681e-05 0)
(0.0969014741719 3.66297380175e-05 0)
(0.0968496922418 3.67762335122e-05 0)
(0.096798951054 3.7085954247e-05 0)
(0.0967489697328 3.75989686083e-05 0)
(0.0966994201859 3.83618776179e-05 0)
(0.0966499228707 3.94266482031e-05 0)
(0.0966000420976 4.08536473264e-05 0)
(0.0965492807479 4.27113339194e-05 0)
(0.0964970744515 4.50776214368e-05 0)
(0.0964427846334 4.80412531425e-05 0)
(0.0963856912412 5.17041754219e-05 0)
(0.0963249833385 5.61829767919e-05 0)
(0.0962597479158 6.16123107306e-05 0)
(0.0961889574121 6.81473545152e-05 0)
(0.0961114543938 7.59686042946e-05 0)
(0.096025933014 8.52881591603e-05 0)
(0.0959309160235 9.63558727774e-05 0)
(0.0958247257303 0.000109467423169 0)
(0.0957054482109 0.000124977792466 0)
(0.0955708904729 0.000143314956778 0)
(0.0954185248389 0.000164999435693 0)
(0.0952454176911 0.000190670271525 0)
(0.0950481420647 0.000221120133942 0)
(0.0948226625227 0.000257341295576 0)
(0.094564187448 0.000300589608099 0)
(0.0942669765122 0.000352473151371 0)
(0.0939240853723 0.000415077463916 0)
(0.0935270264462 0.000491143495934 0)
(0.0930653122372 0.000584327410358 0)
(0.0925258318473 0.000699584489627 0)
(0.0918919935257 0.000843746187316 0)
(0.0911425356306 0.00102639987334 0)
(0.0902498667343 0.00126125291136 0)
(0.0891777543832 0.0015682709899 0)
(0.0878781344288 0.00197705681702 0)
(0.0862869512616 0.00253219727208 0)
(0.0843194983624 0.00330152124801 0)
(0.0818654894357 0.00438802359212 0)
(0.078780302374 0.00594598337488 0)
(0.0749034378269 0.00820177006748 0)
(0.0702899629493 0.0114176799483 0)
(0.066249552047 0.0154515530614 0)
(0.100002793366 -2.93116886547e-06 0)
(0.100009634826 -1.69087561845e-06 0)
(0.100010174364 5.07165588984e-06 0)
(0.0999923395221 1.72907458609e-05 0)
(0.0999477981382 3.29657455219e-05 0)
(0.0998737609554 4.89893423162e-05 0)
(0.099773602246 6.24086290368e-05 0)
(0.0996550245321 7.14706954686e-05 0)
(0.0995270417196 7.59455568494e-05 0)
(0.0993973864493 7.67611251044e-05 0)
(0.099271177952 7.53416745082e-05 0)
(0.0991508408032 7.30265328814e-05 0)
(0.0990367813012 7.07552710207e-05 0)
(0.0989282734523 6.9012552891e-05 0)
(0.0988241969223 6.79234835011e-05 0)
(0.0987234953075 6.7403491849e-05 0)
(0.0986253781806 6.72837698187e-05 0)
(0.098529352191 6.73930127415e-05 0)
(0.0984351679742 6.75962122931e-05 0)
(0.0983427414653 6.78033655156e-05 0)
(0.0982520834747 6.79641033867e-05 0)
(0.0981632492099 6.80544455147e-05 0)
(0.0980763065746 6.80683924301e-05 0)
(0.0979913200287 6.80090527252e-05 0)
(0.097908342682 6.78825992484e-05 0)
(0.0978274149839 6.76967678809e-05 0)
(0.0977485658176 6.74575829877e-05 0)
(0.0976718134743 6.71712263323e-05 0)
(0.0975971677286 6.68428723209e-05 0)
(0.0975246304258 6.64778253537e-05 0)
(0.0974541954761 6.60814240884e-05 0)
(0.0973858483823 6.5661951556e-05 0)
(0.0973195644815 6.52285377718e-05 0)
(0.0972553069167 6.47945582365e-05 0)
(0.0971930236234 6.4375905859e-05 0)
(0.097132646114 6.39921018009e-05 0)
(0.0970740864623 6.36691573174e-05 0)
(0.0970172332863 6.34378100967e-05 0)
(0.0969619483597 6.33347690185e-05 0)
(0.0969080626188 6.34038809456e-05 0)
(0.0968553738088 6.36956483097e-05 0)
(0.0968036423046 6.42699737915e-05 0)
(0.0967525872445 6.5195600539e-05 0)
(0.0967018816515 6.65515507496e-05 0)
(0.0966511483576 6.84276945131e-05 0)
(0.0965999555998 7.09267957919e-05 0)
(0.0965478118323 7.41658055167e-05 0)
(0.0964941602938 7.82778175631e-05 0)
(0.0964383720331 8.34143074242e-05 0)
(0.0963797395595 8.97491258976e-05 0)
(0.0963174679281 9.74806251122e-05 0)
(0.0962506642967 0.00010683767901 0)
(0.096178325826 0.000118083785065 0)
(0.0960993267626 0.000131525652006 0)
(0.0960124010705 0.000147522087929 0)
(0.0959161203075 0.000166494826869 0)
(0.0958088691982 0.000188943222663 0)
(0.0956888140852 0.000215463981049 0)
(0.0955538638292 0.000246775393267 0)
(0.0954016216462 0.000283748104465 0)
(0.0952293257343 0.000327447152049 0)
(0.0950337746475 0.000379188320455 0)
(0.0948112332462 0.000440610090031 0)
(0.0945573140261 0.000513775912578 0)
(0.094266827829 0.000601308909002 0)
(0.0939335935487 0.000706584490122 0)
(0.0935501953946 0.000833996482262 0)
(0.0931076756859 0.000989338907699 0)
(0.0925951473029 0.0011803539028 0)
(0.0919993097656 0.00141753129827 0)
(0.0913038675645 0.00171527665343 0)
(0.0904888775045 0.00209363470249 0)
(0.0895301182811 0.00258080628736 0)
(0.0883987590699 0.00321676307844 0)
(0.0870620157678 0.00405820681417 0)
(0.0854864096338 0.0051845690447 0)
(0.0836462413615 0.00670283678653 0)
(0.0815402021719 0.00874487352306 0)
(0.0792345066052 0.0114422525866 0)
(0.0769942474543 0.0148038848073 0)
(0.0755268377742 0.0182245183537 0)
(0.100002797602 -4.29142402335e-06 0)
(0.100009941009 -2.6193440659e-06 0)
(0.100011288428 7.02590874036e-06 0)
(0.0999949611333 2.45519471595e-05 0)
(0.0999526123518 4.71132927993e-05 0)
(0.0998812408746 7.02522865295e-05 0)
(0.0997838595406 8.97093566772e-05 0)
(0.0996678002598 0.000102934196032 0)
(0.099541818129 0.000109561113183 0)
(0.0994135503126 0.000110895679642 0)
(0.099288165904 0.000108970169031 0)
(0.0991682274044 0.000105709492189 0)
(0.0990543050287 0.000102472661231 0)
(0.0989458167774 9.99671742673e-05 0)
(0.09884174543 9.83858651537e-05 0)
(0.0987410943501 9.76158960883e-05 0)
(0.098643097305 9.74212225491e-05 0)
(0.0985472613277 9.75597832092e-05 0)
(0.098453323661 9.78393852618e-05 0)
(0.098361181618 9.81306242828e-05 0)
(0.0982708263796 9.83603884456e-05 0)
(0.0981822951147 9.84947976927e-05 0)
(0.0980956406986 9.85240024949e-05 0)
(0.0980109147413 9.8452152934e-05 0)
(0.097928160077 9.82874490725e-05 0)
(0.0978474086415 9.8040451709e-05 0)
(0.0977686821662 9.77203172455e-05 0)
(0.0976919930322 9.73357619422e-05 0)
(0.0976173452008 9.68938138136e-05 0)
(0.0975447351736 9.64023344079e-05 0)
(0.0974741520286 9.58699129699e-05 0)
(0.0974055760961 9.53076324815e-05 0)
(0.0973389776339 9.4729902681e-05 0)
(0.0972743147104 9.41552780342e-05 0)
(0.0972115304967 9.36066608419e-05 0)
(0.0971505518569 9.31146057876e-05 0)
(0.09709128616 9.27151086122e-05 0)
(0.0970336175777 9.24528666762e-05 0)
(0.0969774041839 9.23809768029e-05 0)
(0.0969224741943 9.25622921869e-05 0)
(0.096868623066 9.30706836327e-05 0)
(0.0968156104356 9.39915291276e-05 0)
(0.0967631558094 9.54240831352e-05 0)
(0.0967109342003 9.74808967765e-05 0)
(0.0966585725063 0.000100291576687 0)
(0.0966056453543 0.000104003001292 0)
(0.0965516700699 0.000108783198341 0)
(0.0964961016759 0.000114821805734 0)
(0.0964383272902 0.000122335593323 0)
(0.0963776591961 0.000131572316748 0)
(0.0963133274314 0.000142814708554 0)
(0.0962444705806 0.000156387566897 0)
(0.096170125454 0.000172664921572 0)
(0.0960892153709 0.000192081474313 0)
(0.0960005347311 0.000215143153235 0)
(0.0959027318477 0.000242443647689 0)
(0.0957942876548 0.000274684630834 0)
(0.0956734894947 0.000312700767067 0)
(0.0955384005197 0.000357491789523 0)
(0.0953868221561 0.000410264816583 0)
(0.0952162485899 0.000472489559849 0)
(0.0950238123293 0.000545968696387 0)
(0.0948062184399 0.000632932378441 0)
(0.0945596656327 0.000736163685525 0)
(0.0942797541184 0.000859169000736 0)
(0.0939613783381 0.00100640473946 0)
(0.0935986056567 0.00118359296015 0)
(0.0931845505719 0.0013981524919 0)
(0.0927112572042 0.00165979831274 0)
(0.0921696236271 0.0019813681536 0)
(0.0915494412813 0.0023799660865 0)
(0.090839678109 0.00287850854145 0)
(0.0900292524284 0.0035077433572 0)
(0.0891087451568 0.00430869018161 0)
(0.0880738306378 0.00533506801738 0)
(0.0869317260139 0.00665426870446 0)
(0.0857123032202 0.00834302053028 0)
(0.0844848918425 0.0104694115071 0)
(0.0833821121248 0.0130455300101 0)
(0.0826262096235 0.0159120718616 0)
(0.0824932618923 0.0184846815735 0)
(0.100002803594 -5.78560709416e-06 0)
(0.100010307102 -3.77073026476e-06 0)
(0.100012700734 8.78284128209e-06 0)
(0.0999984107303 3.17675905924e-05 0)
(0.0999591043364 6.1501285924e-05 0)
(0.0998914981199 9.21408058928e-05 0)
(0.0997980939353 0.000118060259471 0)
(0.0996856841452 0.000135847903825 0)
(0.0995626364107 0.000144952272069 0)
(0.0994364344168 0.000147033457054 0)
(0.0993123076745 0.000144733358804 0)
(0.0991930108994 0.000140580757992 0)
(0.0990793475112 0.000136378951511 0)
(0.0989709441402 0.000133081495688 0)
(0.0988669340154 0.000130966678888 0)
(0.0987664084664 0.00012990618172 0)
(0.0986686382549 0.000129602795179 0)
(0.0985731323482 0.000129744866186 0)
(0.0984796103863 0.000130083673006 0)
(0.0983879436934 0.000130449914278 0)
(0.0982980966917 0.000130746114549 0)
(0.0982100818348 0.000130926650003 0)
(0.0981239309028 0.000130977778242 0)
(0.0980396784047 0.000130902817076 0)
(0.0979573531973 0.000130712698479 0)
(0.0978769761487 0.000130419945097 0)
(0.0977985597664 0.00013003709923 0)
(0.0977221080522 0.000129574625547 0)
(0.0976476179631 0.000129042262928 0)
(0.0975750794943 0.000128450558789 0)
(0.0975044748744 0.000127811340511 0)
(0.0974357780901 0.000127139304453 0)
(0.0973689529591 0.00012645444647 0)
(0.0973039510166 0.000125780999379 0)
(0.0972407095337 0.000125150840302 0)
(0.0971791491967 0.00012460375448 0)
(0.0971191711546 0.000124188359086 0)
(0.0970606545921 0.000123964159917 0)
(0.0970034529546 0.000124001142109 0)
(0.0969473910659 0.00012438274156 0)
(0.0968922624668 0.000125206316327 0)
(0.096837826088 0.000126584947626 0)
(0.0967838026732 0.0001286485418 0)
(0.0967298711025 0.00013154560295 0)
(0.0966756649958 0.000135445944474 0)
(0.0966207688132 0.000140542572 0)
(0.0965647131908 0.000147054116485 0)
(0.0965069709417 0.000155229616326 0)
(0.0964469523673 0.000165351656182 0)
(0.0963839986938 0.000177742367171 0)
(0.096317376463 0.000192769423004 0)
(0.0962462695602 0.000210853240086 0)
(0.0961697708785 0.000232477993887 0)
(0.0960868731621 0.00025820299737 0)
(0.0959964569494 0.000288678148922 0)
(0.0958972773837 0.000324663241537 0)
(0.0957879486671 0.000367051124491 0)
(0.0956669253946 0.000416899499373 0)
(0.095532481565 0.000475467784704 0)
(0.0953826867239 0.000544267340518 0)
(0.0952153779402 0.000625123629779 0)
(0.0950281293803 0.000720257429826 0)
(0.0948182202861 0.000832388806868 0)
(0.0945826030122 0.000964874129581 0)
(0.0943178729193 0.00112188449993 0)
(0.0940202508588 0.00130863922945 0)
(0.0936855880285 0.00153171486449 0)
(0.0933094140307 0.00179945117587 0)
(0.0928870645989 0.00212248104616 0)
(0.0924139463544 0.00251441410239 0)
(0.0918860359832 0.00299269351467 0)
(0.091300762812 0.00357960951677 0)
(0.0906585082149 0.00430336939692 0)
(0.0899650584654 0.00519890549046 0)
(0.0892354423477 0.00630766521614 0)
(0.0884995863351 0.00767471371363 0)
(0.0878097806514 0.00933982743145 0)
(0.0872483871274 0.0113168350174 0)
(0.0869309248013 0.0135532559272 0)
(0.0869905584684 0.0158619754091 0)
(0.0875051026582 0.0178351847027 0)
(0.100002808496 -7.43423591613e-06 0)
(0.100010727987 -5.21001560267e-06 0)
(0.100014396001 1.02009726446e-05 0)
(0.100002658579 3.87059748863e-05 0)
(0.0999672344517 7.58183309234e-05 0)
(0.0999044965463 0.000114304700008 0)
(0.0998162929977 0.000147128075277 0)
(0.099708709282 0.000169944775285 0)
(0.0995895931851 0.000181948006815 0)
(0.0994662100871 0.000185104566295 0)
(0.0993438518829 0.000182648623099 0)
(0.0992255134595 0.000177718372839 0)
(0.0991122977659 0.000172584641992 0)
(0.09900410262 0.000168476760498 0)
(0.0989002602495 0.000165782901351 0)
(0.0987999801527 0.00016437778465 0)
(0.0987025839797 0.000163914426588 0)
(0.0986075866332 0.000164018675786 0)
(0.0985146872997 0.000164385859545 0)
(0.0984237253467 0.000164807041017 0)
(0.0983346314646 0.000165159952209 0)
(0.0982473873955 0.000165384779488 0)
(0.0981619987055 0.000165462372839 0)
(0.0980784784097 0.000165394901724 0)
(0.0979968383275 0.000165194000842 0)
(0.0979170855318 0.000164875326501 0)
(0.097839221076 0.000164452616695 0)
(0.0977632394636 0.000163938939514 0)
(0.0976891291713 0.000163347427321 0)
(0.09761687204 0.000162690546238 0)
(0.0975464426554 0.000161984261141 0)
(0.0974778074932 0.000161247556881 0)
(0.097410922603 0.00016050601745 0)
(0.097345732082 0.000159790754846 0)
(0.0972821659895 0.000159143139806 0)
(0.0972201378524 0.000158613331771 0)
(0.097159542628 0.000158263032954 0)
(0.0971002531046 0.000158167418261 0)
(0.0970421180358 0.000158414714411 0)
(0.0969849591719 0.000159109659647 0)
(0.0969285683361 0.000160373798183 0)
(0.0968727051471 0.000162348774893 0)
(0.0968170934858 0.000165195920923 0)
(0.0967614187096 0.000169100673459 0)
(0.0967053244716 0.000174273607424 0)
(0.0966484091587 0.00018095343897 0)
(0.0965902230145 0.000189410991971 0)
(0.0965302640735 0.000199953041642 0)
(0.0964679741229 0.000212928370768 0)
(0.0964027345523 0.000228731897334 0)
(0.0963338609556 0.000247813981575 0)
(0.0962605982431 0.000270687664883 0)
(0.0961821144719 0.000297941639838 0)
(0.096097494275 0.000330253802837 0)
(0.0960057313688 0.000368406849581 0)
(0.095905719878 0.000413312228512 0)
(0.0957962463048 0.000466034372179 0)
(0.0956759790512 0.00052782566335 0)
(0.0955434587591 0.00060016633549 0)
(0.0953970894677 0.000684817629527 0)
(0.095235130231 0.000783885795393 0)
(0.0950556911072 0.000899904656113 0)
(0.0948567352824 0.00103593848764 0)
(0.0946360925312 0.00119571268821 0)
(0.0943914905734 0.00138377584568 0)
(0.0941206172826 0.00160570800206 0)
(0.0938212296236 0.00186837477529 0)
(0.0934913369292 0.00218024371334 0)
(0.0931294966469 0.00255176034109 0)
(0.0927352782046 0.00299578144437 0)
(0.0923099767231 0.00352802738656 0)
(0.0918576825102 0.0041674732043 0)
(0.091386832654 0.00493648910295 0)
(0.0909123775128 0.0058603556474 0)
(0.0904586128321 0.00696545604316 0)
(0.0900624820705 0.00827492198704 0)
(0.0897765131189 0.00979980853314 0)
(0.0896692118478 0.0115233160593 0)
(0.0898184554144 0.0133763475497 0)
(0.0902894755196 0.0152072564743 0)
(0.0910842357392 0.0167637651167 0)
(0.100002810483 -9.25870009897e-06 0)
(0.100011190281 -7.00920469999e-06 0)
(0.100016325115 1.11221941871e-05 0)
(0.100007591045 4.51021788939e-05 0)
(0.099976805085 8.97024236511e-05 0)
(0.0999199536836 0.000136328110925 0)
(0.0998381104714 0.000176504789358 0)
(0.0997365028464 0.000204883130666 0)
(0.0996223316914 0.000220311020669 0)
(0.0995025733512 0.000224985332494 0)
(0.0993825714488 0.000222690428768 0)
(0.0992655945905 0.000217169056727 0)
(0.0991531004881 0.000211179337745 0)
(0.0990453142449 0.000206258533374 0)
(0.0989418114602 0.000202937702 0)
(0.0988419498077 0.000201120264621 0)
(0.0987451188575 0.000200427930921 0)
(0.0986508447546 0.000200434576634 0)
(0.0985588057306 0.000200783752929 0)
(0.0984688058633 0.000201227764072 0)
(0.0983807368813 0.000201617773829 0)
(0.0982945445631 0.000201879281084 0)
(0.0982102041375 0.0002019848961 0)
(0.0981277034529 0.000201934412693 0)
(0.0980470347069 0.000201739581729 0)
(0.0979681889879 0.000201416408836 0)
(0.097891154107 0.000200981282307 0)
(0.09781591409 0.000200449667432 0)
(0.0977424473612 0.000199836535209 0)
(0.0976707269762 0.000199158095857 0)
(0.0976007188756 0.000198433863756 0)
(0.0975323809898 0.000197688571489 0)
(0.0974656610279 0.000196952866688 0)
(0.0974004949586 0.000196267270842 0)
(0.0973368052422 0.000195681690516 0)
(0.0972744974947 0.000195258595156 0)
(0.0972134597282 0.000195073495578 0)
(0.0971535593234 0.000195217381485 0)
(0.0970946404725 0.000195798010233 0)
(0.0970365221611 0.00019694182632 0)
(0.0969789965165 0.000198795888678 0)
(0.0969218255126 0.000201529557964 0)
(0.0968647388033 0.000205336837987 0)
(0.0968074319901 0.000210439164998 0)
(0.0967495628691 0.000217087421738 0)
(0.096690750081 0.000225566187916 0)
(0.096630569748 0.000236196813897 0)
(0.0965685534541 0.000249342347507 0)
(0.0965041850621 0.000265414023368 0)
(0.0964368974053 0.000284876594421 0)
(0.0963660699779 0.000308257118712 0)
(0.0962910253418 0.000336154705424 0)
(0.0962110268042 0.000369252929078 0)
(0.096125273731 0.000408334079913 0)
(0.0960329001844 0.000454297308972 0)
(0.0959329717291 0.000508181274398 0)
(0.0958244836926 0.000571191788125 0)
(0.0957063609678 0.000644732774608 0)
(0.0955774596442 0.000730449798449 0)
(0.095436573665 0.000830278670808 0)
(0.09528244521 0.000946505837185 0)
(0.0951137852706 0.00108184335566 0)
(0.0949293069694 0.00123951849995 0)
(0.0947277766234 0.00142338162947 0)
(0.0945080936982 0.00163803531071 0)
(0.0942694101227 0.00188898619846 0)
(0.0940113051898 0.00218281728367 0)
(0.0937340409705 0.00252737745351 0)
(0.0934389263768 0.00293197137088 0)
(0.0931288263261 0.00340752376846 0)
(0.092808861171 0.00396665531525 0)
(0.092487338678 0.00462357180523 0)
(0.0921769373805 0.00539358551045 0)
(0.0918961178884 0.00629197969725 0)
(0.091670600726 0.00733176211358 0)
(0.0915345026746 0.00851967262215 0)
(0.0915302650862 0.0098496875801 0)
(0.0917057840279 0.0112935222528 0)
(0.092106270592 0.0127888898379 0)
(0.0927576564732 0.0142295276116 0)
(0.0936398206615 0.0154675004499 0)
(0.100002807852 -1.12801590708e-05 0)
(0.100011671288 -9.24198447333e-06 0)
(0.100018402205 1.13819435347e-05 0)
(0.100013003386 5.06750691357e-05 0)
(0.0999874452393 0.000102762237179 0)
(0.0999373131275 0.000157751113948 0)
(0.0998628241978 0.000205725401166 0)
(0.0997682297358 0.000240256985529 0)
(0.0996599719174 0.000259737379233 0)
(0.0995446638017 0.000266489226158 0)
(0.0994276739877 0.000264779209446 0)
(0.0993125569964 0.000258934317399 0)
(0.0992011601074 0.000252215489258 0)
(0.0990940771853 0.000246502058695 0)
(0.0989911648043 0.000242508104179 0)
(0.0988919567892 0.000240200339854 0)
(0.0987959276568 0.000239194228428 0)
(0.0987026237881 0.000239024899826 0)
(0.0986117053136 0.000239293500478 0)
(0.0985229399674 0.000239714728827 0)
(0.0984361782872 0.000240112697791 0)
(0.0983513272406 0.000240395949415 0)
(0.0982683284791 0.000240527158526 0)
(0.0981871428278 0.000240501283339 0)
(0.0981077401198 0.000240328905203 0)
(0.098030094203 0.000240025370524 0)
(0.0979541790753 0.000239608686862 0)
(0.0978799662095 0.000239096071279 0)
(0.0978074238555 0.000238505213863 0)
(0.0977365154112 0.000237855883061 0)
(0.0976671978732 0.000237171764402 0)
(0.0975994199294 0.000236483166039 0)
(0.0975331208267 0.000235828003403 0)
(0.097468228134 0.000235255611239 0)
(0.0974046558507 0.000234826331488 0)
(0.097342302724 0.000234614651349 0)
(0.0972810502142 0.000234711359721 0)
(0.0972207604226 0.00023522372571 0)
(0.0971612745892 0.00023627937894 0)
(0.0971024111861 0.00023802700392 0)
(0.0970439637437 0.000240638753089 0)
(0.0969856999248 0.000244312044332 0)
(0.0969273593368 0.00024927250445 0)
(0.0968686514277 0.000255776642438 0)
(0.0968092546 0.000264114455251 0)
(0.0967488137258 0.000274613559315 0)
(0.096686938808 0.000287642841678 0)
(0.0966232042729 0.000303618329524 0)
(0.0965571466639 0.000323007870881 0)
(0.0964882635266 0.000346339188862 0)
(0.0964160124913 0.000374207284809 0)
(0.0963398113127 0.000407285377892 0)
(0.096259037046 0.000446336565752 0)
(0.0961730267756 0.000492228044635 0)
(0.0960810800174 0.000545950647828 0)
(0.0959824618892 0.000608637267128 0)
(0.0958764076123 0.00068159144814 0)
(0.0957621318221 0.000766315209866 0)
(0.0956388426287 0.000864547430895 0)
(0.095505758668 0.000978306078122 0)
(0.0953621378724 0.00110993842526 0)
(0.0952073174095 0.00126218046123 0)
(0.0950407682399 0.00143822382777 0)
(0.094862173217 0.00164179072214 0)
(0.0946715343273 0.00187721682307 0)
(0.0944693186178 0.00214953480669 0)
(0.0942566551735 0.00246455562716 0)
(0.0940355968773 0.00282893010067 0)
(0.0938094641056 0.00325017190733 0)
(0.0935832796838 0.00373660429086 0)
(0.0933643063036 0.00429717915389 0)
(0.0931626809772 0.00494107924785 0)
(0.0929921014445 0.00567699091171 0)
(0.0928704722311 0.00651187731483 0)
(0.0928203101813 0.00744904761364 0)
(0.0928685571118 0.00848530616447 0)
(0.0930452260097 0.00960706204724 0)
(0.0933800655829 0.010785639385 0)
(0.0938962908259 0.0119728573449 0)
(0.0946007348547 0.0130994327125 0)
(0.0954716536623 0.0140807009618 0)
(0.100002798224 -1.35176837704e-05 0)
(0.100012139594 -1.1975569356e-05 0)
(0.100020508341 1.08254540112e-05 0)
(0.100018608422 5.51543946766e-05 0)
(0.0999986249348 0.000114610265027 0)
(0.099955762904 0.000178104870461 0)
(0.099889354733 0.00023429981603 0)
(0.0998026056376 0.000275617414672 0)
(0.0997011146042 0.000299866103757 0)
(0.0995910583802 0.000309364720519 0)
(0.0994777846691 0.000308770385715 0)
(0.0993651180397 0.000302955260629 0)
(0.0992553026078 0.000295691506816 0)
(0.0991493223224 0.00028923695041 0)
(0.0990473396033 0.000284533769596 0)
(0.0989490870443 0.000281654020862 0)
(0.0988541415573 0.000280236528148 0)
(0.098762081453 0.000279799082485 0)
(0.0986725556474 0.000279909835708 0)
(0.0985852985015 0.000280249847366 0)
(0.0985001203925 0.000280616932508 0)
(0.0984168889202 0.000280900017283 0)
(0.098335511606 0.000281050126044 0)
(0.0982559209475 0.000281054618452 0)
(0.0981780639699 0.00028092010234 0)
(0.0981018961115 0.000280661969127 0)
(0.0980273764964 0.000280297220922 0)
(0.0979544645632 0.000279844691842 0)
(0.0978831174093 0.000279325149731 0)
(0.0978132884842 0.00027876173039 0)
(0.0977449253499 0.000278183388737 0)
(0.0976779679619 0.000277625999333 0)
(0.0976123469441 0.000277136225635 0)
(0.0975479816497 0.000276771676146 0)
(0.0974847786211 0.000276604673317 0)
(0.0974226299935 0.000276722955693 0)
(0.0973614118376 0.000277231604451 0)
(0.0973009830463 0.000278255945063 0)
(0.0972411839836 0.000279943156127 0)
(0.0971818344271 0.000282463454272 0)
(0.0971227335409 0.000286013509878 0)
(0.0970636580908 0.000290817937982 0)
(0.0970043618337 0.000297132619473 0)
(0.0969445744734 0.000305246583933 0)
(0.0968840002044 0.000315486137673 0)
(0.0968223181163 0.000328217687818 0)
(0.0967591808978 0.000343853112172 0)
(0.0966942151211 0.000362854020966 0)
(0.0966270212109 0.00038573758043 0)
(0.0965571737206 0.000413083340725 0)
(0.0964842231269 0.000445541781337 0)
(0.0964076974924 0.000483843254964 0)
(0.0963271055555 0.000528809755568 0)
(0.0962419414049 0.000581367890154 0)
(0.0961516899572 0.000642566242326 0)
(0.0960558363056 0.000713591403791 0)
(0.0959538777088 0.00079579202043 0)
(0.0958453386651 0.000890703387588 0)
(0.0957297940515 0.00100007574874 0)
(0.0956068972321 0.00112590636334 0)
(0.0954764188081 0.00127047639465 0)
(0.0953382987787 0.00143638815152 0)
(0.0951927128972 0.00162660522009 0)
(0.0950401604857 0.00184449085027 0)
(0.0948815770201 0.00209384044845 0)
(0.0947184778474 0.00237890198754 0)
(0.0945531372992 0.00270437511881 0)
(0.0943888082052 0.00307537372639 0)
(0.0942299847956 0.0034973315186 0)
(0.0940827047952 0.00397582090666 0)
(0.093954874201 0.00451625144109 0)
(0.0938565899418 0.00512339471572 0)
(0.0938003993419 0.00580068249166 0)
(0.0938014028088 0.00654921275747 0)
(0.0938770520008 0.00736641764798 0)
(0.0940464261533 0.00824438327349 0)
(0.0943287155591 0.00916792994837 0)
(0.0947406154601 0.0101127849322 0)
(0.0952924250107 0.0110445553299 0)
(0.0959829878769 0.0119197051736 0)
(0.0967947013848 0.0126900618507 0)
(0.100002779163 -1.59858069818e-05 0)
(0.100012558607 -1.52634108606e-05 0)
(0.100022504298 9.32566480513e-06 0)
(0.100024066001 5.83106068705e-05 0)
(0.100009707321 0.000124904955724 0)
(0.0999743123366 0.000196957557304 0)
(0.0999163611293 0.000261753102896 0)
(0.0998380036288 0.000310502989935 0)
(0.099743948365 0.000340296822359 0)
(0.099639869533 0.000353299990631 0)
(0.0995310300247 0.000354446678158 0)
(0.0994214777668 0.000349098183624 0)
(0.099313829415 0.000341536535876 0)
(0.0992094536894 0.000334432876191 0)
(0.0991088278608 0.000329005236704 0)
(0.099011897788 0.000325476814562 0)
(0.0989183586371 0.000323547312943 0)
(0.0988278350449 0.000322741498036 0)
(0.0987399748084 0.000322607449674 0)
(0.0986544867328 0.000322799179593 0)
(0.0985711456295 0.000323088563155 0)
(0.0984897828524 0.000323343984103 0)
(0.0984102730154 0.000323502069417 0)
(0.0983325209528 0.000323540640904 0)
(0.0982564516547 0.000323460566767 0)
(0.0981820021519 0.00032327371746 0)
(0.0981091165001 0.000322996873428 0)
(0.0980377419071 0.000322649708478 0)
(0.0979678246409 0.000322255143688 0)
(0.0978993083376 0.00032184078002 0)
(0.0978321314912 0.00032144036056 0)
(0.0977662254381 0.000321097296322 0)
(0.097701512817 0.000320865787272 0)
(0.0976379056485 0.000320814205765 0)
(0.0975753044938 0.000321026240209 0)
(0.0975135960999 0.000321602964674 0)
(0.0974526536145 0.000322665125372 0)
(0.0973923353037 0.000324355369789 0)
(0.097332482833 0.000326839370064 0)
(0.0972729216957 0.000330308769556 0)
(0.0972134601009 0.000334983122691 0)
(0.0971538892587 0.000341112040347 0)
(0.0970939826643 0.000348978675681 0)
(0.097033495512 0.000358901168677 0)
(0.0969721657899 0.000371237084441 0)
(0.0969097139828 0.000386386265871 0)