/*--------------------------------*- C++ -*----------------------------------*\
| =========                 |                                                 |
| \\      /  F ield         | OpenFOAM: The Open Source CFD Toolbox           |
|  \\    /   O peration     | Version:  2112                                  |
|   \\  /    A nd           | Website:  www.openfoam.com                      |
|    \\/     M anipulation  |                                                 |
\*---------------------------------------------------------------------------*/
FoamFile
{
    version     2.0;
    format      ascii;
    arch        "LSB;label=32;scalar=64";
    class       volScalarField;
    location    "0.4";
    object      T;
}
// * * * * * * * * * * * * * * * * * * * * * * * * * * * * * * * * * * * * * //

dimensions      [0 0 0 1 0 0 0];

internalField   nonuniform List<scalar> 
1681
(
302.518889976
304.333084834
305.163513638
305.745856036
306.203466402
306.551351121
306.819573839
307.027417992
307.188131461
307.312025359
307.407115502
307.479709896
307.534807191
307.576369763
307.607528017
307.630742451
307.647933933
307.660590859
307.669857387
307.676605973
307.681496561
307.68502451
307.687558941
307.689372991
307.690667452
307.691589111
307.692244775
307.692711855
307.693046263
307.693288285
307.693466933
307.69360313
307.693712001
307.693804478
307.693888488
307.693970425
307.694055326
307.694116914
307.694129551
307.694138694
307.694130209
302.087804469
303.936076249
304.845676152
305.460211388
305.928837367
306.283815729
306.556204899
306.766430268
306.928528629
307.053189777
307.148663989
307.221410073
307.276522367
307.318024756
307.349086669
307.372192678
307.389277767
307.401837918
307.411020668
307.417699277
307.422533007
307.426015776
307.428514952
307.430301904
307.431575805
307.432482029
307.433126202
307.433584767
307.43391287
307.434150202
307.434325316
307.434458778
307.434565429
307.434655966
307.4347381
307.434817654
307.434897563
307.434957198
307.434978842
307.434999253
307.434989253
301.755499941
303.578888645
304.541511665
305.182450277
305.661071284
306.022164438
306.29815568
306.510431856
306.673695683
306.798978098
306.894738534
306.96757026
307.022653004
307.06406526
307.095010773
307.117994976
307.134964769
307.147422221
307.156517246
307.163123231
307.167898315
307.171334679
307.173797754
307.175557015
307.176809933
307.17770042
307.178332879
307.178782764
307.179104438
307.179336984
307.179508486
307.179639148
307.17974352
307.179832063
307.179912258
307.179989418
307.180065204
307.180123576
307.18015261
307.18018283
307.180172676
301.495949461
303.259016427
304.252482492
304.913491073
305.400514737
305.766639206
306.045594007
306.259536547
306.423712007
306.5494452
306.645376207
306.71821448
306.773213527
306.81449864
306.845302531
306.868147789
306.88499067
306.897337563
306.906339541
306.912869294
306.917583274
306.920971548
306.923397358
306.925128122
306.926359493
306.927233842
306.927854302
306.928295302
306.928610396
306.928838043
306.929005847
306.929133637
306.929235671
306.929322171
306.929400382
306.929475185
306.92954753
306.929605094
306.929640194
306.929678375
306.929668715
301.290503547
302.973194581
303.979322846
304.65401023
305.147452076
305.51743117
305.798650147
306.013830118
306.178634354
306.304627305
306.400598347
306.473353224
306.528206498
306.569321664
306.599954498
306.622640635
306.639342819
306.651569754
306.660472288
306.666921455
306.671571361
306.674909517
306.677296669
306.678997976
306.680207134
306.681064881
306.681673016
306.682104898
306.682413247
306.682635874
306.682799887
306.682924735
306.683024374
306.683108785
306.683184981
306.683257489
306.683326924
306.683383965
306.683424034
306.683468626
306.683459842
301.125679057
302.717911792
303.722211168
304.404460393
304.902099859
305.27468473
305.557420958
305.773373828
305.938500058
306.064544774
306.160413013
306.232985609
306.287624516
306.328522198
306.358951123
306.381455517
306.398001487
306.410097856
306.418893712
306.425257367
306.429839848
306.433125602
306.435472538
306.437143322
306.438329536
306.439170177
306.439765634
306.440188155
306.440489585
306.440707067
306.440867197
306.440989031
306.441086222
306.441168502
306.441242663
306.441312951
306.441379887
306.441436569
306.441480684
306.441530423
306.441522741
300.991648504
302.489710412
303.480919158
304.165095771
304.664605162
305.038500513
305.321972759
305.538206681
305.703328979
305.829203712
305.92481628
305.997100409
306.051451048
306.092079869
306.122269278
306.144567352
306.160940217
306.172894463
306.181575761
306.187848547
306.192359968
306.195590854
306.197895903
306.199535027
306.200697525
306.201520531
306.20210295
306.202515857
306.202810193
306.203022407
306.203178565
306.203297318
306.203392009
306.203472123
306.203544238
306.20361238
306.20367713
306.20373353
306.203780913
306.203834761
306.203828291
300.881193662
302.285349865
303.254934436
303.936000924
304.435047282
304.808938116
305.092343701
305.308347227
305.473124999
305.59859717
305.693793194
305.765676807
305.81966101
305.859966511
305.889878597
305.911944223
305.928126017
305.939925847
305.948484217
305.954660456
305.959096977
305.962270403
305.964531816
305.966138105
305.967276092
305.968080926
305.96864994
305.969052985
305.969340056
305.969546881
305.96969898
305.96981459
305.969906734
305.969984652
305.970054715
305.970120785
305.970183584
305.970239716
305.970289701
305.970346801
305.970341567
300.788972653
302.101884474
303.043557614
303.71711999
304.21344187
304.586018881
304.868545863
305.083795084
305.247877236
305.372706107
305.467318523
305.538684981
305.592221214
305.63214651
305.66174174
305.683547579
305.699519507
305.711152071
305.719578775
305.725652557
305.730010195
305.733123487
305.735339474
305.736911728
305.738024403
305.738810528
305.739365777
305.739758716
305.740038356
305.740239678
305.740387638
305.740500045
305.740589601
305.740665296
305.740733307
305.740797368
305.740858391
305.740914227
305.740966242
305.741025876
305.741021841
300.711001973
301.936689395
302.845976658
303.508284424
303.999746671
304.369728763
304.650567152
304.864532249
305.027561048
305.151500172
305.245357368
305.316086571
305.36909074
305.408577086
305.437814603
305.459332401
305.475075042
305.486527078
305.494813117
305.500778369
305.505053051
305.508103486
305.510272233
305.51180925
305.512895814
305.513662701
305.514203834
305.514586432
305.514858485
305.515054196
305.515197942
305.515307095
305.515394025
305.515467474
305.515533435
305.515595543
305.515654914
305.515710395
305.515763947
305.515825504
305.515822594
300.64428774
301.787456456
302.661322154
303.309238082
303.793868136
304.160021303
304.438373087
304.650524268
304.812138894
304.934938353
305.027865664
305.097835071
305.150221226
305.189208517
305.218046499
305.239247331
305.254740817
305.265998774
305.27413497
305.279985521
305.284173119
305.287157954
305.289277647
305.290778229
305.291837897
305.292585029
305.293111707
305.293483742
305.293748059
305.293938061
305.294077526
305.294183376
305.294267648
305.294338833
305.294402747
305.294462947
305.294520752
305.2945758
305.294630457
305.294693412
305.294691532
300.586561508
301.652173742
302.488707179
303.119659124
303.595668388
303.956820656
304.231908493
304.441721294
304.601561071
304.722969534
304.814790593
304.883876144
304.935557116
304.973984333
305.0023803
305.023234789
305.038458956
305.049509101
305.057486172
305.063215795
305.067312164
305.070228655
305.07229749
305.073760458
305.07479246
305.07551934
305.076031238
305.0763925
305.076648943
305.076833146
305.076968267
305.077070773
305.077152358
305.077221265
305.077283135
305.077341464
305.077397759
305.07745228
305.077507662
305.077571563
305.077570602
300.536089899
301.529097465
302.32725511
302.939178585
303.404972103
303.760024631
304.031099135
304.238059067
304.395766376
304.515532963
304.606070943
304.674147892
304.72503587
304.762841477
304.790752569
304.811231081
304.8261656
304.836994104
304.844802724
304.850405181
304.85440618
304.857251604
304.859267799
304.860691996
304.861695587
304.862401733
304.862898544
304.863248835
304.863497278
304.863675599
304.863806324
304.863905449
304.863984323
304.864050937
304.864110768
304.864167253
304.864222068
304.864275961
304.864331735
304.864396182
304.864396027
300.491536695
301.416721279
302.176118209
302.767395743
303.221573061
303.569507669
303.835853286
304.039459833
304.194682703
304.312558676
304.401637412
304.468581093
304.518588145
304.555710447
304.583093672
304.603166481
304.617790977
304.628383997
304.636014847
304.641483922
304.645385444
304.648157107
304.650118912
304.65150321
304.652477666
304.653162619
304.653644052
304.653983189
304.654223517
304.654395882
304.654522162
304.654617875
304.654694018
304.65475833
304.654816123
304.654870784
304.654924131
304.65497729
304.655033157
304.655097796
304.655098336
300.451862403
301.313746027
302.034489311
302.603890556
303.045240177
303.385123726
303.646063244
303.845833213
303.998227599
304.113967876
304.201412888
304.267099405
304.31613795
304.352515423
304.379327882
304.39896533
304.413259483
304.423603231
304.431047046
304.436376574
304.440174557
304.44286981
304.444775513
304.446118815
304.447063441
304.447726764
304.448192546
304.44852036
304.448752466
304.448918811
304.449040604
304.449132878
304.449206273
304.449268275
304.449324033
304.44937688
304.449428756
304.449481074
304.449536765
304.44960128
304.449602408
300.416250721
301.219051496
301.901608476
302.448233514
302.875722904
303.206708998
303.461606791
303.657077043
303.806308782
303.919673286
304.005312699
304.069619558
304.117602807
304.153174393
304.179373485
304.198546116
304.212489756
304.22257056
304.229818169
304.235002064
304.238692512
304.241308757
304.243156689
304.244457934
304.245372063
304.246013339
304.246463214
304.246779547
304.247003338
304.247163604
304.247280876
304.247369689
304.247440323
304.247500007
304.247553731
304.247604771
304.247655159
304.247706528
304.2477618
304.247825907
304.247827522
300.384054416
301.131670941
301.776766016
302.299993256
302.712755988
303.034084466
303.282348576
303.473078167
303.618824637
303.729579481
303.813244854
303.876051539
303.922893884
303.957599267
303.983142875
304.001821564
304.015394757
304.025199117
304.03224148
304.037273755
304.040852748
304.04338745
304.04517599
304.046434154
304.047317146
304.047935982
304.048369711
304.048674421
304.048889811
304.049043948
304.049156669
304.049242002
304.049309863
304.049367226
304.049418914
304.049468147
304.049517024
304.049567335
304.049621969
304.049685409
304.049687418
300.354755256
301.050768609
301.659303011
302.15874233
302.556063558
302.867058241
303.108141438
303.293713211
303.4356647
303.543583212
303.625110272
303.686298762
303.731916143
303.765695999
303.790542662
303.808698732
303.821881855
303.831396497
303.838224736
303.843099524
303.846563232
303.849013923
303.8507415
303.851955597
303.852806843
303.853402868
303.853820228
303.854113183
303.854320096
303.85446806
303.854576205
303.854658045
303.854723126
303.854778162
303.854827813
303.854875233
303.854922568
303.854971717
303.855025512
303.855088048
303.855090365
300.32793418
300.975620212
301.548610129
302.024061397
302.405362592
302.70542768
302.938827644
303.118849319
303.256710115
303.361573711
303.440803007
303.500258244
303.544568477
303.577364704
303.601473778
303.619079104
303.63185292
303.641064839
303.647670268
303.652381842
303.655726537
303.658090822
303.659755919
303.660925004
303.661743923
303.662316787
303.662717571
303.662998651
303.66319702
303.663338775
303.663442324
303.663520659
303.663582954
303.663635659
303.663683271
303.66372887
303.663774626
303.66382251
303.66387528
303.663936696
303.663939244
300.303248949
300.905596142
301.444125333
301.895542186
302.260365786
302.548981289
302.774240045
302.948344859
303.081834087
303.183433008
303.260210474
303.317820782
303.360743863
303.392499791
303.415831589
303.432858704
303.445204426
303.454100929
303.460475083
303.46501787
303.468239934
303.470515497
303.472116654
303.473239821
303.474025862
303.474575236
303.474959252
303.47522835
303.475418115
303.475553629
303.475652566
303.475727389
303.475786893
303.475837266
303.475882834
303.475926599
303.475970737
303.476017257
303.47606883
303.476128927
303.476131634
300.280417298
300.84014714
301.345330937
301.772789444
302.120783904
302.397500397
302.614203144
302.782050095
302.910902323
303.009036227
303.083213676
303.138871131
303.180329503
303.210990091
303.233506026
303.249928207
303.261827558
303.270396308
303.276530966
303.280899565
303.283995498
303.286180105
303.287715922
303.288792306
303.289544947
303.290070522
303.290437595
303.290694611
303.290875721
303.291004968
303.291099281
303.291170587
303.291227297
303.291275335
303.291318855
303.291360771
303.291403248
303.291448307
303.291498526
303.291557117
303.29155992
300.259204143
300.778792127
301.251750302
301.655422086
301.98632764
302.250760622
302.458534082
302.619807831
302.743773459
302.838251891
302.909687429
302.963288193
303.003206995
303.032719004
303.054381708
303.070173063
303.081608339
303.089837387
303.095724598
303.09991379
303.10288022
303.104971727
303.106440862
303.107469642
303.108188389
303.108689878
303.109039843
303.10928469
303.109457099
303.109580058
303.109669738
303.109737523
303.109791439
303.10983714
303.109878606
303.109918656
303.109959429
303.110002933
303.110051651
303.110108564
303.110111405
300.239411809
300.721107893
301.162944388
301.54307373
301.856709075
302.108533128
302.307043524
302.46145401
302.580299473
302.670942225
302.739500598
302.790945201
302.829252489
302.857564649
302.878338089
302.893473639
302.904427756
302.912305581
302.917937682
302.921942448
302.924776138
302.926772492
302.928173667
302.929154062
302.929838451
302.930315584
302.930648292
302.93088089
302.93104456
302.931161214
302.931246255
302.931310519
302.93136164
302.931405003
302.931444408
302.931482574
302.931521597
302.931563458
302.931610536
302.931665611
302.931668438
300.220872497
300.666720365
301.078508305
301.435392753
301.731642765
301.970585691
302.159536472
302.306818287
302.420326091
302.506963455
302.572516335
302.621709929
302.658336871
302.685400026
302.705249612
302.719705362
302.730161909
302.737677446
302.743047088
302.74686262
302.749560474
302.751459717
302.752791717
302.753722991
302.754372585
302.754825114
302.755140427
302.755360706
302.755515602
302.755625938
302.755706337
302.75576708
302.755815408
302.755856432
302.755893768
302.75593003
302.755967258
302.75600739
302.7560527
302.756105785
302.756108552
300.203442441
300.615297228
300.998067966
301.332041982
301.610846525
301.836683595
302.015812983
302.155724557
302.263693183
302.34616611
302.408592319
302.455444889
302.490325946
302.516093188
302.53498587
302.548738879
302.558682165
302.565824839
302.570925003
302.574546714
302.577105787
302.578906061
302.580167736
302.581049194
302.581663587
302.582091279
302.582389073
302.582596969
302.582743065
302.582847073
302.582922829
302.582980053
302.58302559
302.583064273
302.583099533
302.58313387
302.583169259
302.583207579
302.583251
302.583301956
302.583304621
300.18699734
300.566541656
300.921276873
301.232698124
301.494041953
301.706590363
301.875668805
302.007991455
302.110235134
302.188395317
302.247581008
302.292007556
302.325080633
302.349507426
302.367411784
302.380440229
302.389855327
302.396615082
302.401439097
302.404862636
302.407280136
302.408979685
302.410169954
302.411000946
302.411579758
302.411982401
302.412262563
302.412458021
302.412595291
302.412692965
302.412764079
302.412817787
302.412860536
302.412896876
302.412930054
302.412962444
302.412995949
302.413032379
302.413073798
302.413122492
302.413125018
300.171428745
300.520186983
300.847813091
301.137050991
301.38095473
301.580068347
301.738895949
301.863432819
301.959781221
302.033491105
302.089329885
302.131250585
302.162457173
302.185501462
302.202387792
302.214671028
302.223543813
302.229911137
302.234452701
302.237673961
302.23994726
302.241544433
302.242662283
302.243442204
302.243985084
302.244362482
302.24462491
302.244807881
302.244936308
302.245027644
302.245094118
302.245144315
302.245184277
302.245218275
302.245249361
302.245279784
302.245311361
302.245345827
302.245385138
302.245431444
302.245433798
300.156641182
300.475992145
300.777376405
301.044802598
301.271314746
301.456879199
301.605283179
301.721858114
301.812155961
301.8812887
301.933681725
301.973022048
302.002307343
302.023929658
302.039770044
302.05128866
302.059605852
302.065571806
302.069824999
302.072840128
302.074966765
302.076460022
302.077504511
302.078232799
302.078739424
302.079091401
302.079336002
302.079506445
302.079626014
302.079711009
302.079772848
302.079819539
302.079856718
302.079888373
302.079917359
302.079945793
302.0799754
302.080007831
302.080044933
302.080088736
302.080090888
300.142549835
300.433737766
300.70968567
300.955666169
301.164856092
301.336784226
301.474616446
301.583072838
301.667179461
301.731618825
301.780474857
301.817165674
301.844478686
301.864642229
301.879410617
301.890146487
301.897895685
301.903451925
301.907411229
301.910216639
301.912194327
301.91358224
301.914552498
301.915228638
301.915698713
301.916025109
301.916251804
301.916409683
301.916520381
301.916599037
301.916656245
301.916699436
301.916733836
301.916763147
301.916790024
301.91681645
301.916844046
301.916874375
301.916909173
301.916950361
301.916952288
300.129078652
300.393222758
300.644476341
300.869365099
301.06131693
301.219544671
301.346679271
301.446878896
301.524667755
301.584308
301.629543433
301.663521104
301.688814747
301.707485475
301.721157737
301.731094067
301.738263784
301.743402585
301.747062894
301.749655274
301.751481905
301.752763163
301.753658393
301.754281916
301.754715176
301.755015848
301.755224567
301.755369852
301.755471673
301.755543991
301.755596575
301.755636271
301.755667897
301.755694863
301.755719624
301.75574402
301.755769567
301.75579773
301.755830135
301.755868604
301.755870283
300.116158788
300.354261354
300.581498194
300.785631905
300.960439301
301.104921912
301.221253085
301.313074952
301.38443314
301.439178853
301.480717716
301.511924151
301.535155325
301.552302022
301.564856014
301.573977388
301.58055708
301.585271358
301.588627996
301.591004317
301.592677969
301.593851378
301.594670859
301.595241343
301.595637553
301.595912376
301.596103057
301.596235726
301.596328663
301.596394648
301.596442615
301.596478824
301.596507678
301.596532299
301.596554936
301.596577283
301.596600745
301.596626681
301.59665661
301.59669226
301.596693676
300.103727292
300.316680492
300.520513221
300.704207209
300.861968897
300.992677635
301.09811754
301.181456783
301.246284509
301.296050428
301.333824367
301.362207079
301.383336734
301.398931075
301.410346689
301.418639107
301.424619203
301.428902533
301.431951267
301.434108791
301.435627733
301.436692222
301.437435311
301.437952381
301.438311332
301.438560198
301.438732793
301.438852826
301.438936879
301.438996537
301.439039894
301.439072622
301.439098709
301.439120984
301.43914149
301.43916177
301.439183111
301.439206766
301.439234138
301.439266875
301.439268014
300.091725992
300.280317492
300.461293723
300.624838791
300.765654821
300.882573978
300.977050817
301.051817621
301.110027698
301.154738517
301.188686761
301.214198892
301.233192083
301.247208689
301.257467897
301.264918808
301.270290738
301.274137373
301.276874421
301.27881071
301.280173402
301.281128026
301.281794156
301.282257488
301.282579001
301.28280182
301.282956288
301.283063674
301.283138844
301.28319218
301.283230937
301.283260191
301.283283516
301.283303444
301.283321811
301.283340007
301.283359196
301.283380516
301.283405257
301.283434988
301.283435846
300.080100534
300.245018
300.403620617
300.547280758
300.671249399
300.774373698
300.857829939
300.923948522
300.975465855
301.01505601
301.045125308
301.067725648
301.084551572
301.096968047
301.10605494
301.112653275
301.117409484
301.120814367
301.12323641
301.124949332
301.126154435
301.126998372
301.127587058
301.127996375
301.128280301
301.128477
301.128613311
301.128708042
301.128774332
301.128821356
301.12885552
301.128881308
301.128901874
301.128919457
301.128935679
301.128951774
301.128968781
301.128987719
301.129009757
301.129036393
301.129036971
300.068799548
300.210634198
300.347282021
300.471292898
300.57850809
300.667840387
300.740231131
300.797638773
300.842399841
300.876813278
300.90295782
300.922610792
300.93724281
300.948039771
300.95594058
300.961676768
300.965810734
300.968769511
300.9708737
300.972361431
300.973407804
300.974140362
300.974651197
300.975006271
300.975252492
300.975423013
300.975541147
300.97562322
300.975680638
300.975721359
300.975750939
300.975773268
300.97579108
300.975806317
300.975820388
300.975834368
300.975849166
300.975865677
300.975884946
300.975908399
300.975908706
300.057773927
300.177023314
300.292072188
300.396640298
300.487189544
300.562738798
300.624030261
300.672676359
300.710628695
300.739818609
300.76199991
300.778675534
300.79109116
300.800252243
300.806955351
300.811821328
300.815327571
300.817836591
300.819620548
300.820881573
300.821768277
300.822388892
300.822821549
300.8231222
300.823330624
300.823474929
300.823574874
300.823644293
300.823692846
300.823727274
300.823752281
300.823771157
300.823786219
300.82379911
300.823811025
300.823822878
300.823835442
300.823849487
300.823865924
300.823886101
300.82388616
300.046976241
300.144046553
300.237790945
300.323093319
300.397055915
300.458835332
300.509003408
300.548848544
300.579950178
300.603878711
300.622065453
300.63573926
300.645920121
300.65343196
300.658927892
300.662917094
300.665791166
300.667847482
300.669309297
300.670342408
300.671068702
300.671576933
300.671931164
300.672177259
300.672347824
300.672465889
300.672547642
300.672604413
300.672644112
300.672672258
300.6726927
300.672708132
300.672720447
300.672730993
300.672740748
300.672750461
300.672760771
300.672772315
300.672785861
300.672802667
300.672802514
300.036360316
300.11156865
300.184243836
300.250428082
300.307873512
300.355898784
300.394927629
300.42594261
300.450161458
300.468799323
300.48296712
300.493620015
300.501551763
300.507403931
300.511685309
300.514792644
300.517031111
300.518632461
300.51977068
300.520574969
300.521140303
300.521535831
300.521811459
300.522002911
300.522135578
300.522227394
300.522290959
300.522335093
300.52236595
300.522387825
300.522403712
300.522415705
300.522425279
300.52243348
300.52244107
300.522448635
300.522456674
300.522465685
300.522476289
300.522489615
300.522489306
300.025881074
300.079458413
300.131243267
300.178427607
300.219413935
300.253701438
300.281582018
300.303746822
300.321059967
300.334385959
300.344517034
300.352135067
300.357807221
300.361992115
300.36505358
300.367275369
300.368875767
300.370020541
300.370834142
300.371408981
300.371812982
300.3720956
300.372292517
300.372429278
300.372524033
300.372589602
300.372634989
300.372666498
300.372688526
300.372704141
300.37271548
300.372724042
300.372730877
300.372736734
300.372742158
300.372747567
300.372753319
300.372759774
300.372767388
300.372777113
300.372776729
300.015494809
300.047590874
300.078611096
300.106883841
300.131455887
300.152020674
300.168749172
300.182051718
300.192444517
300.200444863
300.206527571
300.21110159
300.214507278
300.217019933
300.218858004
300.220191876
300.221152633
300.221839821
300.222328176
300.222673187
300.222915644
300.223085238
300.223203394
300.223285447
300.223342292
300.223381624
300.223408847
300.223427745
300.223440956
300.223450319
300.223457119
300.223462254
300.223466353
300.223469867
300.223473122
300.22347637
300.223479825
300.223483706
300.223488291
300.223494272
300.223493921
300.005160159
300.01585196
300.026183248
300.035600786
300.043787886
300.050641274
300.056217244
300.060651848
300.064116777
300.066784225
300.068812372
300.0703375
300.071473069
300.072310862
300.072923717
300.073368449
300.073688769
300.073917872
300.074080679
300.074195694
300.074276517
300.074333049
300.074372432
300.074399781
300.074418727
300.074431835
300.074440907
300.074447205
300.074451607
300.074454727
300.074456993
300.074458704
300.07446007
300.074461242
300.074462327
300.07446341
300.074464562
300.074465857
300.074467388
300.074469451
300.074469276
)
;

boundaryField
{
    in
    {
        type            fixedValue;
        value           uniform 300;
    }
    out
    {
        type            zeroGradient;
    }
    top
    {
        type            fixedValue;
        value           uniform 300;
    }
    bottom
    {
        type            fixedGradient;
        gradient        nonuniform List<scalar> 
41
(
23.2282941362
17.9458575551
13.4950989945
11.9869235858
11.5249937811
11.1980904679
11.0077354592
10.8991994592
10.8350736001
10.7988222243
10.7799361773
10.7716524237
10.7696874028
10.7712801765
10.7746681664
10.7787558773
10.7828918076
10.786717071
10.7900618116
10.792873357
10.7951670514
10.7969943429
10.7984224355
10.7995210919
10.800355057
10.8009809866
10.8014467764
10.8017916635
10.8020467716
10.8022362112
10.8023785576
10.8024883019
10.8025771174
10.8026544101
10.8027279555
10.8028217854
10.8030716023
10.8031936261
10.8027483345
10.8023073422
10.8023238732
)
;
    }
    frontback
    {
        type            empty;
    }
}


// ************************************************************************* //
