/*--------------------------------*- C++ -*----------------------------------*\
| =========                 |                                                 |
| \\      /  F ield         | OpenFOAM: The Open Source CFD Toolbox           |
|  \\    /   O peration     | Version:  2112                                  |
|   \\  /    A nd           | Website:  www.openfoam.com                      |
|    \\/     M anipulation  |                                                 |
\*---------------------------------------------------------------------------*/
FoamFile
{
    version     2.0;
    format      ascii;
    arch        "LSB;label=32;scalar=64";
    class       volVectorField;
    location    "0.4";
    object      UxB;
}
// * * * * * * * * * * * * * * * * * * * * * * * * * * * * * * * * * * * * * //

dimensions      [1 1 -3 0 0 -1 0];

internalField   nonuniform List<vector> 
1681
(
(0 0 0.113095983092)
(0 0 0.105593732486)
(0 0 0.0753206984573)
(0 0 0.0773212180144)
(-0 0 0.0747911180042)
(0 0 0.0756236077606)
(-0 0 0.0753165684686)
(0 0 0.0755320396035)
(-0 0 0.0754759289996)
(0 0 0.0755201603515)
(-0 0 0.0755057850145)
(0 0 0.0755140984374)
(-0 0 0.0755103863586)
(0 0 0.0755120175307)
(-0 0 0.0755111499921)
(0 0 0.0755115037416)
(-0 0 0.0755113156428)
(0 0 0.0755113969235)
(-0 0 0.0755113570494)
(0 0 0.0755113756947)
(-0 0 0.0755113671053)
(0 0 0.0755113712792)
(-0 0 0.075511369384)
(0 0 0.0755113703008)
(-0 0 0.0755113698774)
(0 0 0.0755113700781)
(-0 0 0.0755113699836)
(0 0 0.0755113700276)
(-0 0 0.0755113700065)
(0 0 0.0755113700164)
(-0 0 0.0755113700119)
(-0 0 0.0755113700141)
(-0 0 0.0755113700129)
(0 0 0.0755113700134)
(0 0 0.0755113700133)
(-0 0 0.0755113700133)
(0 0 0.0755113700132)
(-0 0 0.0755113700134)
(-0 0 0.0755113700134)
(-0 0 0.0755113700136)
(-0 0 0.0755113700138)
(0 0 0.261383903344)
(0 0 0.258090326428)
(0 0 0.195428690835)
(0 0 0.198566140806)
(-0 0 0.192444659627)
(0 0 0.194183761143)
(-0 0 0.193468050385)
(0 0 0.193953540501)
(-0 0 0.193830981365)
(0 0 0.193933118063)
(-0 0 0.193901870045)
(0 0 0.193921022144)
(-0 0 0.193912774819)
(0 0 0.193916471394)
(-0 0 0.193914512432)
(0 0 0.193915304383)
(-0 0 0.193914877231)
(0 0 0.193915059061)
(-0 0 0.193914968701)
(0 0 0.193915010603)
(-0 0 0.193914991226)
(0 0 0.193915000642)
(-0 0 0.193914996378)
(0 0 0.193914998449)
(-0 0 0.193914997496)
(0 0 0.193914997949)
(-0 0 0.193914997736)
(0 0 0.193914997835)
(-0 0 0.193914997788)
(0 0 0.19391499781)
(-0 0 0.193914997799)
(-0 0 0.193914997804)
(-0 0 0.193914997802)
(0 0 0.193914997803)
(0 0 0.193914997803)
(0 0 0.193914997803)
(0 0 0.193914997803)
(-0 0 0.193914997803)
(-0 0 0.193914997803)
(-0 0 0.193914997803)
(-0 0 0.193914997804)
(0 0 0.357968266318)
(0 0 0.367129584392)
(0 0 0.290113506189)
(0 0 0.293525474508)
(0 0 0.284927587985)
(0 0 0.28714339202)
(-0 0 0.286138419077)
(-0 0 0.286791057404)
(-0 0 0.286626002764)
(0 0 0.286766275552)
(-0 0 0.286724769532)
(0 0 0.286751171952)
(-0 0 0.286740104834)
(0 0 0.286745159923)
(-0 0 0.286742502831)
(0 0 0.286743576173)
(-0 0 0.286742993734)
(0 0 0.286743239576)
(-0 0 0.286743116361)
(0 0 0.286743173131)
(-0 0 0.286743146774)
(0 0 0.286743159563)
(-0 0 0.286743153775)
(0 0 0.286743156591)
(-0 0 0.286743155298)
(0 0 0.286743155914)
(-0 0 0.286743155625)
(0 0 0.28674315576)
(-0 0 0.286743155696)
(0 0 0.286743155725)
(-0 0 0.286743155711)
(-0 0 0.286743155718)
(-0 0 0.286743155715)
(0 0 0.286743155716)
(0 0 0.286743155716)
(0 0 0.286743155716)
(0 0 0.286743155716)
(0 0 0.286743155716)
(-0 0 0.286743155717)
(-0 0 0.286743155717)
(-0 0 0.286743155717)
(0 0 0.420240365502)
(0 0 0.444346484324)
(0 0 0.364026239942)
(0 0 0.367747655048)
(0 0 0.35758030337)
(0 0 0.360039120515)
(-0 0 0.35882229988)
(-0 0 0.35957440463)
(-0 0 0.359379174192)
(-0 0 0.359544091951)
(-0 0 0.359495959615)
(0 0 0.35952725719)
(-0 0 0.359514404513)
(0 0 0.359520383832)
(-0 0 0.359517276813)
(0 0 0.359518538049)
(-0 0 0.35951785352)
(0 0 0.359518141352)
(-0 0 0.359517996311)
(0 0 0.359518062793)
(-0 0 0.3595180318)
(0 0 0.359518046801)
(-0 0 0.359518040005)
(0 0 0.359518043313)
(-0 0 0.359518041796)
(0 0 0.35951804252)
(-0 0 0.359518042181)
(0 0 0.359518042339)
(-0 0 0.359518042264)
(0 0 0.359518042299)
(-0 0 0.359518042282)
(-0 0 0.35951804229)
(-0 0 0.359518042286)
(0 0 0.359518042288)
(0 0 0.359518042287)
(-0 0 0.359518042288)
(0 0 0.359518042288)
(0 0 0.359518042288)
(0 0 0.359518042288)
(0 0 0.359518042289)
(-0 0 0.359518042289)
(0 0 0.459578276578)
(0 0 0.498235702746)
(0 0 0.421225243571)
(0 0 0.425631434553)
(0 0 0.41461980106)
(0 0 0.417204950587)
(-0 0 0.415829958654)
(-0 0 0.416636541533)
(-0 0 0.416417041949)
(-0 0 0.41659712861)
(-0 0 0.416544263875)
(0 0 0.416578855548)
(-0 0 0.416564838051)
(0 0 0.416571468981)
(-0 0 0.416568071005)
(0 0 0.416569464158)
(-0 0 0.416568712047)
(0 0 0.416569028551)
(-0 0 0.416568868719)
(0 0 0.416568941715)
(-0 0 0.416568907549)
(0 0 0.416568924031)
(-0 0 0.416568916547)
(0 0 0.416568920186)
(-0 0 0.416568918518)
(0 0 0.416568919314)
(-0 0 0.416568918941)
(0 0 0.416568919116)
(-0 0 0.416568919033)
(0 0 0.416568919071)
(-0 0 0.416568919053)
(0 0 0.416568919061)
(-0 0 0.416568919058)
(-0 0 0.41656891906)
(0 0 0.416568919059)
(-0 0 0.416568919059)
(-0 0 0.416568919059)
(0 0 0.416568919059)
(0 0 0.41656891906)
(0 0 0.41656891906)
(-0 0 0.416568919061)
(0 0 0.483609228905)
(0 0 0.535110871668)
(0 0 0.465114574127)
(0 0 0.470660289108)
(0 0 0.459370490251)
(0 0 0.462035273695)
(-0 0 0.460541605231)
(-0 0 0.461372916706)
(-0 0 0.461131519317)
(-0 0 0.461320002567)
(-0 0 0.461263266221)
(0 0 0.461300034097)
(-0 0 0.461285213882)
(0 0 0.461292323)
(-0 0 0.461288736052)
(0 0 0.461290228028)
(-0 0 0.461289430957)
(0 0 0.46128976819)
(-0 0 0.461289598101)
(0 0 0.461289675633)
(-0 0 0.461289639212)
(0 0 0.461289656713)
(-0 0 0.46128964874)
(0 0 0.461289652608)
(-0 0 0.461289650832)
(0 0 0.46128965168)
(-0 0 0.461289651284)
(0 0 0.461289651469)
(-0 0 0.461289651381)
(0 0 0.461289651422)
(-0 0 0.461289651402)
(0 0 0.461289651411)
(-0 0 0.461289651407)
(-0 0 0.46128965141)
(-0 0 0.461289651408)
(-0 0 0.461289651409)
(0 0 0.461289651409)
(0 0 0.461289651409)
(0 0 0.461289651409)
(0 0 0.46128965141)
(0 0 0.46128965141)
(0 0 0.497510417368)
(0 0 0.559694653111)
(0 0 0.498496404242)
(0 0 0.505587452827)
(0 0 0.494451712647)
(0 0 0.497189205518)
(-0 0 0.495607663402)
(-0 0 0.496444228461)
(-0 0 0.496181518428)
(-0 0 0.496373478369)
(-0 0 0.496313145607)
(-0 0 0.496351284786)
(-0 0 0.496335864552)
(0 0 0.496343338653)
(-0 0 0.496339628402)
(0 0 0.496341199782)
(-0 0 0.49634037281)
(0 0 0.496340726104)
(-0 0 0.496340548726)
(0 0 0.496340629578)
(-0 0 0.496340591482)
(0 0 0.496340609709)
(-0 0 0.496340601368)
(0 0 0.4963406054)
(-0 0 0.496340603545)
(0 0 0.49634060443)
(-0 0 0.496340604016)
(0 0 0.49634060421)
(-0 0 0.496340604118)
(0 0 0.496340604161)
(-0 0 0.49634060414)
(0 0 0.49634060415)
(-0 0 0.496340604146)
(-0 0 0.496340604148)
(-0 0 0.496340604147)
(-0 0 0.496340604147)
(0 0 0.496340604148)
(0 0 0.496340604148)
(0 0 0.496340604148)
(0 0 0.496340604148)
(0 0 0.496340604149)
(0 0 0.504792969295)
(0 0 0.575495186911)
(0 0 0.523651238718)
(0 0 0.532589119047)
(0 0 0.521926940534)
(0 0 0.524750303266)
(-0 0 0.52310592745)
(-0 0 0.523935205494)
(-0 0 0.52365102827)
(-0 0 0.52384285127)
(-0 0 0.523778896783)
(-0 0 0.523817810048)
(-0 0 0.523801897625)
(0 0 0.523809659667)
(0 0 0.523805868755)
(0 0 0.523807508022)
(-0 0 0.52380666139)
(0 0 0.523807028009)
(-0 0 0.523806845339)
(0 0 0.523806928754)
(-0 0 0.52380688936)
(0 0 0.523806908123)
(-0 0 0.523806899492)
(0 0 0.523806903646)
(-0 0 0.52380690173)
(0 0 0.523806902642)
(-0 0 0.523806902216)
(0 0 0.523806902416)
(-0 0 0.523806902321)
(0 0 0.523806902365)
(-0 0 0.523806902343)
(0 0 0.523806902353)
(-0 0 0.523806902349)
(-0 0 0.523806902352)
(-0 0 0.52380690235)
(-0 0 0.523806902351)
(0 0 0.523806902351)
(0 0 0.523806902351)
(0 0 0.523806902351)
(0 0 0.523806902352)
(0 0 0.523806902352)
(0 0 0.5078302391)
(0 0 0.585098432204)
(0 0 0.54241637038)
(0 0 0.553385431234)
(0 0 0.54342121557)
(0 0 0.546351311296)
(-0 0 0.544664814138)
(-0 0 0.545478983051)
(-0 0 0.545173036738)
(-0 0 0.545362071334)
(-0 0 0.545294345797)
(-0 0 0.545333581417)
(-0 0 0.545317230089)
(0 0 0.545325224885)
(0 0 0.545321381262)
(0 0 0.545323081299)
(0 0 0.545322222127)
(0 0 0.545322600441)
(-0 0 0.545322413864)
(0 0 0.545322499366)
(-0 0 0.545322458925)
(0 0 0.545322478099)
(-0 0 0.545322469229)
(0 0 0.545322473476)
(-0 0 0.545322471509)
(0 0 0.545322472444)
(-0 0 0.545322472007)
(0 0 0.545322472212)
(-0 0 0.545322472114)
(0 0 0.545322472159)
(-0 0 0.545322472138)
(0 0 0.545322472148)
(-0 0 0.545322472143)
(-0 0 0.545322472146)
(-0 0 0.545322472145)
(-0 0 0.545322472145)
(0 0 0.545322472146)
(0 0 0.545322472146)
(0 0 0.545322472146)
(0 0 0.545322472146)
(0 0 0.545322472147)
(0 0 0.508222044277)
(0 0 0.590400233241)
(0 0 0.556258689633)
(0 0 0.569334973312)
(0 0 0.5602135824)
(0 0 0.563271565774)
(-0 0 0.561560023005)
(-0 0 0.562354508734)
(-0 0 0.562026661124)
(-0 0 0.562210998655)
(-0 0 0.562139335487)
(-0 0 0.562178550114)
(-0 0 0.562161784182)
(0 0 0.562169970043)
(0 0 0.562166092217)
(0 0 0.56216784819)
(0 0 0.562166981512)
(0 0 0.562167370496)
(-0 0 0.562167181005)
(0 0 0.56216726828)
(-0 0 0.562167226969)
(0 0 0.56216724647)
(-0 0 0.562167237395)
(0 0 0.562167241715)
(-0 0 0.562167239705)
(0 0 0.562167240658)
(-0 0 0.562167240212)
(0 0 0.562167240421)
(-0 0 0.562167240322)
(0 0 0.562167240368)
(-0 0 0.562167240346)
(0 0 0.562167240356)
(-0 0 0.562167240352)
(-0 0 0.562167240354)
(-0 0 0.562167240353)
(0 0 0.562167240354)
(0 0 0.562167240354)
(0 0 0.562167240354)
(0 0 0.562167240354)
(0 0 0.562167240354)
(-0 0 0.562167240355)
(0 0 0.507042508346)
(0 0 0.592783715495)
(0 0 0.566340322815)
(0 0 0.581509247631)
(0 0 0.573309942245)
(0 0 0.576513097882)
(-0 0 0.574790312877)
(-0 0 0.575562804432)
(-0 0 0.575213250187)
(-0 0 0.575391580436)
(-0 0 0.575315858943)
(-0 0 0.575354795194)
(-0 0 0.575337626006)
(0 0 0.575345969896)
(0 0 0.575342070225)
(0 0 0.575343878336)
(0 0 0.575343007752)
(0 0 0.575343406672)
(-0 0 0.575343215)
(0 0 0.575343303829)
(-0 0 0.575343261781)
(0 0 0.575343281548)
(-0 0 0.575343272293)
(0 0 0.575343276671)
(-0 0 0.575343274625)
(0 0 0.575343275592)
(-0 0 0.575343275138)
(0 0 0.575343275351)
(-0 0 0.575343275251)
(0 0 0.575343275297)
(-0 0 0.575343275275)
(0 0 0.575343275285)
(-0 0 0.575343275281)
(-0 0 0.575343275284)
(-0 0 0.575343275282)
(0 0 0.575343275283)
(0 0 0.575343275283)
(0 0 0.575343275283)
(0 0 0.575343275283)
(0 0 0.575343275283)
(-0 0 0.575343275284)
(0 0 0.505008100022)
(0 0 0.593252426967)
(0 0 0.573575728287)
(0 0 0.590751731201)
(0 0 0.583500460491)
(0 0 0.586860117785)
(-0 0 0.585136864826)
(-0 0 0.58588664819)
(-0 0 0.585515974436)
(-0 0 0.585687486399)
(-0 0 0.585607667446)
(-0 0 0.585646139866)
(-0 0 0.585628575757)
(0 0 0.585637050485)
(0 0 0.585633137269)
(0 0 0.585634994032)
(0 0 0.585634122107)
(0 0 0.585634530339)
(-0 0 0.58563433704)
(0 0 0.585634427257)
(-0 0 0.585634384576)
(0 0 0.585634404564)
(-0 0 0.585634395149)
(0 0 0.585634399575)
(-0 0 0.585634397496)
(0 0 0.585634398475)
(-0 0 0.585634398015)
(0 0 0.585634398231)
(-0 0 0.585634398129)
(0 0 0.585634398177)
(-0 0 0.585634398154)
(0 0 0.585634398164)
(-0 0 0.58563439816)
(-0 0 0.585634398163)
(-0 0 0.585634398161)
(0 0 0.585634398162)
(0 0 0.585634398162)
(0 0 0.585634398162)
(0 0 0.585634398162)
(0 0 0.585634398162)
(0 0 0.585634398163)
(0 0 0.502592179456)
(0 0 0.592529973158)
(0 0 0.578679941988)
(0 0 0.597724723738)
(0 0 0.59140474646)
(0 0 0.594925497749)
(-0 0 0.593209740025)
(-0 0 0.593937243841)
(-0 0 0.593546443776)
(-0 0 0.593710753357)
(-0 0 0.593626897411)
(-0 0 0.593664783063)
(-0 0 0.593646835353)
(0 0 0.593655417954)
(0 0 0.593651496765)
(0 0 0.593653398598)
(0 0 0.593652527121)
(0 0 0.593652944038)
(-0 0 0.59365274954)
(0 0 0.593652841002)
(-0 0 0.593652797776)
(0 0 0.593652817949)
(-0 0 0.593652808391)
(0 0 0.593652812857)
(-0 0 0.593652810749)
(0 0 0.593652811739)
(-0 0 0.593652811273)
(0 0 0.593652811492)
(-0 0 0.593652811388)
(0 0 0.593652811437)
(-0 0 0.593652811414)
(0 0 0.593652811424)
(0 0 0.593652811419)
(-0 0 0.593652811423)
(0 0 0.593652811421)
(0 0 0.593652811422)
(0 0 0.593652811422)
(0 0 0.593652811422)
(0 0 0.593652811422)
(0 0 0.593652811422)
(0 0 0.593652811423)
(0 0 0.500103458109)
(0 0 0.591134448109)
(0 0 0.582208505807)
(0 0 0.602946451376)
(0 0 0.597507346372)
(0 0 0.601187060179)
(-0 0 0.599484182365)
(-0 0 0.600190664783)
(-0 0 0.599781122212)
(-0 0 0.59993821554)
(-0 0 0.599850489215)
(-0 0 0.599887720638)
(-0 0 0.599869407045)
(0 0 0.599878077817)
(0 0 0.599874152366)
(0 0 0.599876095368)
(0 0 0.599875225522)
(0 0 0.599875650437)
(-0 0 0.599875455068)
(0 0 0.599875547644)
(-0 0 0.59987550395)
(0 0 0.599875524279)
(-0 0 0.599875514595)
(0 0 0.599875519094)
(-0 0 0.59987551696)
(0 0 0.599875517959)
(-0 0 0.599875517488)
(0 0 0.599875517709)
(-0 0 0.599875517605)
(0 0 0.599875517653)
(-0 0 0.599875517631)
(0 0 0.599875517641)
(0 0 0.599875517636)
(0 0 0.599875517639)
(0 0 0.599875517638)
(-0 0 0.599875517638)
(0 0 0.599875517639)
(0 0 0.599875517639)
(-0 0 0.599875517639)
(0 0 0.599875517639)
(0 0 0.599875517639)
(0 0 0.4977398419)
(0 0 0.589433814978)
(0 0 0.584589977609)
(0 0 0.606820372808)
(0 0 0.602185552508)
(0 0 0.606015849319)
(-0 0 0.604328916084)
(-0 0 0.605016245675)
(-0 0 0.604589703592)
(-0 0 0.604739888945)
(-0 0 0.604648563838)
(-0 0 0.604685123056)
(-0 0 0.60466646938)
(0 0 0.604675211285)
(0 0 0.604671283983)
(0 0 0.604673263836)
(0 0 0.604672396317)
(0 0 0.604672828447)
(-0 0 0.604672632462)
(0 0 0.604672726021)
(-0 0 0.60467268193)
(0 0 0.604672702389)
(-0 0 0.604672692596)
(0 0 0.604672697121)
(-0 0 0.604672694965)
(0 0 0.60467269597)
(-0 0 0.604672695495)
(0 0 0.604672695719)
(-0 0 0.604672695613)
(0 0 0.604672695662)
(-0 0 0.604672695639)
(0 0 0.60467269565)
(0 0 0.604672695645)
(0 0 0.604672695648)
(-0 0 0.604672695647)
(-0 0 0.604672695647)
(0 0 0.604672695648)
(0 0 0.604672695648)
(-0 0 0.604672695648)
(0 0 0.604672695648)
(0 0 0.604672695648)
(0 0 0.495625386523)
(0 0 0.587686898279)
(0 0 0.586152013798)
(0 0 0.609658219657)
(0 0 0.60573109899)
(0 0 0.609698076363)
(-0 0 0.608028115026)
(-0 0 0.608698614289)
(-0 0 0.608257134761)
(-0 0 0.608400998805)
(-0 0 0.608306445049)
(-0 0 0.608342357866)
(-0 0 0.608323398498)
(0 0 0.608332196739)
(0 0 0.608328269071)
(0 0 0.608330281016)
(0 0 0.608329416117)
(0 0 0.608329854577)
(-0 0 0.608329658169)
(0 0 0.608329752576)
(-0 0 0.608329708153)
(0 0 0.60832972872)
(-0 0 0.608329718832)
(0 0 0.608329723379)
(-0 0 0.608329721204)
(0 0 0.608329722215)
(-0 0 0.608329721737)
(0 0 0.608329721962)
(-0 0 0.608329721856)
(0 0 0.608329721905)
(-0 0 0.608329721882)
(0 0 0.608329721893)
(0 0 0.608329721887)
(0 0 0.608329721891)
(0 0 0.608329721889)
(-0 0 0.60832972189)
(0 0 0.60832972189)
(0 0 0.60832972189)
(0 0 0.608329721891)
(0 0 0.608329721891)
(0 0 0.60832972189)
(0 0 0.493835629454)
(0 0 0.586073531171)
(0 0 0.587141981054)
(0 0 0.611697971659)
(0 0 0.60836696959)
(0 0 0.61245204455)
(-0 0 0.610798345409)
(-0 0 0.611454675777)
(-0 0 0.611000595076)
(-0 0 0.611138960857)
(-0 0 0.611041636939)
(-0 0 0.6110769671)
(-0 0 0.611057744723)
(0 0 0.611066586396)
(0 0 0.611062659183)
(0 0 0.611064698035)
(0 0 0.61106383572)
(0 0 0.611064279521)
(-0 0 0.611064082833)
(0 0 0.611064177947)
(-0 0 0.611064133255)
(0 0 0.611064153909)
(-0 0 0.611064143944)
(0 0 0.611064148508)
(-0 0 0.611064146316)
(0 0 0.611064147333)
(-0 0 0.611064146851)
(0 0 0.611064147078)
(-0 0 0.611064146971)
(0 0 0.611064147021)
(-0 0 0.611064146998)
(0 0 0.611064147009)
(0 0 0.611064147003)
(0 0 0.611064147006)
(-0 0 0.611064147005)
(-0 0 0.611064147006)
(0 0 0.611064147006)
(0 0 0.611064147006)
(0 0 0.611064147006)
(0 0 0.611064147006)
(0 0 0.611064147006)
(0 0 0.492414885081)
(0 0 0.584716517748)
(0 0 0.58774295605)
(0 0 0.613117704802)
(0 0 0.610260267585)
(0 0 0.614441058768)
(-0 0 0.612801486206)
(-0 0 0.613446560412)
(-0 0 0.612982441476)
(-0 0 0.613116326719)
(-0 0 0.613016766569)
(-0 0 0.61305160961)
(-0 0 0.613032174319)
(0 0 0.613041048093)
(0 0 0.613037121674)
(0 0 0.613039181871)
(0 0 0.613038321841)
(0 0 0.613038769902)
(-0 0 0.613038573037)
(0 0 0.61303866871)
(-0 0 0.613038623811)
(0 0 0.61303864453)
(-0 0 0.613038634504)
(0 0 0.613038639081)
(-0 0 0.613038636877)
(0 0 0.613038637898)
(-0 0 0.613038637414)
(0 0 0.613038637642)
(-0 0 0.613038637535)
(0 0 0.613038637584)
(-0 0 0.613038637561)
(0 0 0.613038637572)
(0 0 0.613038637566)
(0 0 0.613038637569)
(-0 0 0.613038637568)
(-0 0 0.613038637569)
(0 0 0.613038637569)
(0 0 0.613038637569)
(0 0 0.613038637569)
(0 0 0.613038637569)
(-0 0 0.613038637569)
(0 0 0.491387938713)
(0 0 0.583697376614)
(0 0 0.58808584211)
(0 0 0.614046038658)
(0 0 0.611531875833)
(0 0 0.615783084071)
(-0 0 0.614154392919)
(-0 0 0.61479130518)
(-0 0 0.614319888494)
(-0 0 0.614450463467)
(-0 0 0.61434926157)
(-0 0 0.614383738267)
(-0 0 0.614364146292)
(0 0 0.614373042083)
(0 0 0.614369116456)
(0 0 0.61437119213)
(0 0 0.614370333879)
(0 0 0.61437078504)
(0 0 0.614370588071)
(0 0 0.614370684148)
(-0 0 0.614370639101)
(0 0 0.614370659868)
(-0 0 0.614370649798)
(0 0 0.614370654384)
(-0 0 0.614370652171)
(0 0 0.614370653194)
(-0 0 0.614370652709)
(0 0 0.614370652937)
(-0 0 0.61437065283)
(0 0 0.61437065288)
(0 0 0.614370652856)
(-0 0 0.614370652868)
(0 0 0.614370652862)
(0 0 0.614370652865)
(-0 0 0.614370652864)
(0 0 0.614370652865)
(0 0 0.614370652865)
(0 0 0.614370652865)
(0 0 0.614370652865)
(0 0 0.614370652865)
(-0 0 0.614370652865)
(0 0 0.490767781574)
(0 0 0.583067292654)
(0 0 0.588258191745)
(0 0 0.614569734248)
(0 0 0.612263454368)
(0 0 0.616557723974)
(-0 0 0.614935877476)
(-0 0 0.615567845032)
(-0 0 0.615091998532)
(-0 0 0.615220543201)
(-0 0 0.61511833828)
(-0 0 0.615152587742)
(-0 0 0.615132899879)
(0 0 0.615141808512)
(0 0 0.615137883446)
(0 0 0.6151399685)
(0 0 0.615139111375)
(0 0 0.61513956442)
(0 0 0.615139367397)
(0 0 0.615139463719)
(-0 0 0.615139418584)
(0 0 0.615139439379)
(-0 0 0.615139429283)
(0 0 0.615139433874)
(-0 0 0.615139431656)
(0 0 0.61513943268)
(-0 0 0.615139432194)
(0 0 0.615139432423)
(-0 0 0.615139432315)
(0 0 0.615139432365)
(0 0 0.615139432342)
(-0 0 0.615139432353)
(0 0 0.615139432347)
(0 0 0.61513943235)
(0 0 0.615139432349)
(0 0 0.61513943235)
(0 0 0.615139432351)
(0 0 0.61513943235)
(0 0 0.61513943235)
(0 0 0.61513943235)
(-0 0 0.61513943235)
(-0 0 0.490560471814)
(-0 0 0.582854289322)
(0 0 0.58831019598)
(-0 0 0.614738848835)
(-0 0 0.612502173393)
(0 0 0.616810930491)
(0 0 0.615191417976)
(-0 0 0.615821729488)
(-0 0 0.615344397848)
(0 0 0.615472258359)
(0 0 0.61536971607)
(-0 0 0.615403888542)
(-0 0 0.615384168401)
(0 0 0.615393081251)
(-0 0 0.615389156386)
(-0 0 0.615391244583)
(-0 0 0.615390387843)
(0 0 0.61539084152)
(-0 0 0.61539064448)
(-0 0 0.615390740884)
(-0 0 0.615390695721)
(-0 0 0.615390716524)
(-0 0 0.615390706419)
(-0 0 0.615390711013)
(-0 0 0.615390708792)
(-0 0 0.615390709818)
(-0 0 0.615390709331)
(-0 0 0.61539070956)
(-0 0 0.615390709452)
(0 0 0.615390709502)
(0 0 0.615390709479)
(-0 0 0.61539070949)
(0 0 0.615390709484)
(0 0 0.615390709487)
(0 0 0.615390709486)
(0 0 0.615390709487)
(0 0 0.615390709487)
(0 0 0.615390709487)
(0 0 0.615390709487)
(0 0 0.615390709487)
(0 0 0.615390709487)
(-0 0 0.490767781737)
(-0 0 0.583067292966)
(-0 0 0.588258191761)
(-0 0 0.614569734066)
(-0 0 0.61226345439)
(-0 0 0.616557724054)
(0 0 0.614935877451)
(0 0 0.615567845001)
(0 0 0.615091998549)
(0 0 0.615220543211)
(0 0 0.615118338272)
(0 0 0.615152587741)
(0 0 0.615132899884)
(-0 0 0.615141808512)
(-0 0 0.615137883444)
(-0 0 0.6151399685)
(-0 0 0.615139111376)
(-0 0 0.61513956442)
(-0 0 0.615139367397)
(-0 0 0.615139463719)
(0 0 0.615139418585)
(-0 0 0.615139439379)
(0 0 0.615139429283)
(-0 0 0.615139433874)
(0 0 0.615139431655)
(-0 0 0.61513943268)
(0 0 0.615139432195)
(-0 0 0.615139432423)
(-0 0 0.615139432316)
(-0 0 0.615139432366)
(0 0 0.615139432342)
(-0 0 0.615139432353)
(-0 0 0.615139432348)
(0 0 0.61513943235)
(0 0 0.615139432349)
(0 0 0.615139432351)
(0 0 0.615139432351)
(0 0 0.61513943235)
(0 0 0.61513943235)
(0 0 0.61513943235)
(0 0 0.615139432351)
(-0 0 0.491387939046)
(-0 0 0.583697377229)
(-0 0 0.58808584213)
(-0 0 0.614046038306)
(-0 0 0.611531875879)
(-0 0 0.615783084226)
(0 0 0.614154392869)
(0 0 0.614791305121)
(0 0 0.614319888526)
(0 0 0.614450463486)
(0 0 0.614349261554)
(0 0 0.614383738264)
(0 0 0.614364146301)
(-0 0 0.614373042083)
(-0 0 0.614369116451)
(-0 0 0.61437119213)
(-0 0 0.61437033388)
(-0 0 0.614370785039)
(-0 0 0.61437058807)
(-0 0 0.614370684148)
(0 0 0.614370639102)
(-0 0 0.614370659868)
(0 0 0.614370649798)
(-0 0 0.614370654384)
(0 0 0.614370652171)
(-0 0 0.614370653194)
(0 0 0.61437065271)
(-0 0 0.614370652937)
(-0 0 0.61437065283)
(-0 0 0.61437065288)
(0 0 0.614370652856)
(-0 0 0.614370652868)
(-0 0 0.614370652862)
(0 0 0.614370652865)
(0 0 0.614370652864)
(0 0 0.614370652865)
(0 0 0.614370652865)
(0 0 0.614370652864)
(0 0 0.614370652865)
(0 0 0.614370652865)
(0 0 0.614370652865)
(-0 0 0.492414885596)
(-0 0 0.584716518649)
(-0 0 0.587742956056)
(-0 0 0.6131177043)
(-0 0 0.610260267659)
(-0 0 0.614441058985)
(0 0 0.612801486132)
(0 0 0.61344656033)
(0 0 0.612982441522)
(0 0 0.613116326745)
(0 0 0.613016766545)
(0 0 0.613051609606)
(0 0 0.613032174332)
(-0 0 0.613041048093)
(-0 0 0.613037121668)
(-0 0 0.613039181872)
(-0 0 0.613038321843)
(-0 0 0.613038769901)
(0 0 0.613038573036)
(-0 0 0.61303866871)
(0 0 0.613038623811)
(-0 0 0.61303864453)
(0 0 0.613038634504)
(-0 0 0.613038639081)
(0 0 0.613038636877)
(-0 0 0.613038637898)
(0 0 0.613038637415)
(-0 0 0.613038637642)
(0 0 0.613038637535)
(-0 0 0.613038637585)
(0 0 0.613038637561)
(0 0 0.613038637572)
(0 0 0.613038637567)
(0 0 0.613038637569)
(0 0 0.613038637568)
(0 0 0.61303863757)
(0 0 0.61303863757)
(0 0 0.613038637569)
(0 0 0.613038637569)
(0 0 0.613038637569)
(0 0 0.61303863757)
(-0 0 0.493835630166)
(-0 0 0.586073532331)
(-0 0 0.587141981017)
(-0 0 0.611697971039)
(-0 0 0.608366969698)
(-0 0 0.612452044814)
(0 0 0.610798345312)
(0 0 0.611454675679)
(0 0 0.611000595134)
(0 0 0.611138960887)
(0 0 0.61104163691)
(0 0 0.611076967097)
(0 0 0.611057744739)
(-0 0 0.611066586395)
(-0 0 0.611062659176)
(-0 0 0.611064698035)
(-0 0 0.611063835722)
(-0 0 0.61106427952)
(0 0 0.611064082832)
(-0 0 0.611064177948)
(0 0 0.611064133256)
(-0 0 0.611064153908)
(0 0 0.611064143943)
(-0 0 0.611064148508)
(0 0 0.611064146316)
(-0 0 0.611064147333)
(0 0 0.611064146852)
(-0 0 0.611064147078)
(0 0 0.611064146972)
(-0 0 0.611064147021)
(-0 0 0.611064146998)
(0 0 0.611064147009)
(0 0 0.611064147003)
(0 0 0.611064147006)
(0 0 0.611064147005)
(0 0 0.611064147006)
(0 0 0.611064147006)
(0 0 0.611064147005)
(0 0 0.611064147005)
(0 0 0.611064147006)
(0 0 0.611064147006)
(-0 0 0.495625387448)
(-0 0 0.587686899664)
(-0 0 0.586152013686)
(-0 0 0.609658218957)
(-0 0 0.605731099137)
(-0 0 0.609698076655)
(0 0 0.608028114908)
(0 0 0.608698614184)
(0 0 0.608257134829)
(0 0 0.608400998835)
(0 0 0.608306445017)
(0 0 0.608342357864)
(0 0 0.608323398516)
(-0 0 0.608332196738)
(-0 0 0.608328269064)
(-0 0 0.608330281017)
(-0 0 0.608329416119)
(-0 0 0.608329854575)
(0 0 0.608329658168)
(-0 0 0.608329752577)
(0 0 0.608329708154)
(-0 0 0.608329728719)
(0 0 0.608329718832)
(-0 0 0.608329723379)
(0 0 0.608329721203)
(-0 0 0.608329722216)
(0 0 0.608329721738)
(-0 0 0.608329721962)
(0 0 0.608329721856)
(-0 0 0.608329721906)
(-0 0 0.608329721882)
(0 0 0.608329721893)
(0 0 0.608329721888)
(0 0 0.60832972189)
(0 0 0.608329721889)
(0 0 0.608329721891)
(-0 0 0.608329721891)
(0 0 0.60832972189)
(0 0 0.60832972189)
(0 0 0.60832972189)
(0 0 0.608329721891)
(-0 0 0.497739843053)
(-0 0 0.589433816547)
(-0 0 0.58458997739)
(-0 0 0.606820372072)
(-0 0 0.602185552699)
(-0 0 0.606015849616)
(0 0 0.604328915947)
(0 0 0.605016245573)
(0 0 0.604589703666)
(0 0 0.604739888972)
(0 0 0.604648563805)
(0 0 0.604685123056)
(0 0 0.604666469398)
(-0 0 0.604675211283)
(-0 0 0.604671283976)
(-0 0 0.604673263838)
(-0 0 0.604672396319)
(-0 0 0.604672828445)
(0 0 0.604672632461)
(-0 0 0.604672726022)
(0 0 0.604672681931)
(-0 0 0.604672702389)
(0 0 0.604672692595)
(-0 0 0.604672697121)
(0 0 0.604672694964)
(-0 0 0.60467269597)
(0 0 0.604672695496)
(-0 0 0.604672695719)
(0 0 0.604672695614)
(-0 0 0.604672695663)
(0 0 0.60467269564)
(0 0 0.60467269565)
(0 0 0.604672695645)
(-0 0 0.604672695648)
(0 0 0.604672695646)
(0 0 0.604672695648)
(-0 0 0.604672695648)
(0 0 0.604672695647)
(0 0 0.604672695647)
(-0 0 0.604672695647)
(0 0 0.604672695648)
(-0 0 0.500103459495)
(-0 0 0.591134449811)
(-0 0 0.58220850545)
(-0 0 0.60294645065)
(-0 0 0.597507346609)
(-0 0 0.601187060458)
(0 0 0.599484182214)
(0 0 0.600190664692)
(0 0 0.599781122286)
(0 0 0.59993821556)
(0 0 0.599850489184)
(0 0 0.599887720642)
(0 0 0.599869407062)
(-0 0 0.599878077814)
(-0 0 0.59987415236)
(-0 0 0.599876095369)
(-0 0 0.599875225523)
(-0 0 0.599875650435)
(0 0 0.599875455067)
(-0 0 0.599875547645)
(0 0 0.599875503951)
(-0 0 0.599875524279)
(0 0 0.599875514595)
(-0 0 0.599875519095)
(0 0 0.59987551696)
(-0 0 0.599875517959)
(0 0 0.599875517489)
(-0 0 0.59987551771)
(0 0 0.599875517605)
(-0 0 0.599875517654)
(0 0 0.599875517631)
(0 0 0.599875517642)
(0 0 0.599875517636)
(-0 0 0.599875517639)
(0 0 0.599875517638)
(0 0 0.599875517639)
(-0 0 0.599875517639)
(-0 0 0.599875517638)
(0 0 0.599875517638)
(0 0 0.599875517638)
(0 0 0.599875517639)
(-0 0 0.502592181074)
(-0 0 0.592529974939)
(-0 0 0.578679941468)
(-0 0 0.59772472307)
(-0 0 0.591404746743)
(-0 0 0.594925497989)
(0 0 0.593209739866)
(0 0 0.593937243771)
(0 0 0.593546443848)
(0 0 0.593710753368)
(0 0 0.593626897385)
(0 0 0.593664783071)
(0 0 0.593646835368)
(-0 0 0.593655417951)
(-0 0 0.59365149676)
(-0 0 0.593653398599)
(-0 0 0.593652527121)
(-0 0 0.593652944036)
(0 0 0.593652749539)
(-0 0 0.593652841002)
(0 0 0.593652797777)
(-0 0 0.593652817949)
(0 0 0.593652808391)
(-0 0 0.593652812858)
(0 0 0.593652810749)
(-0 0 0.593652811739)
(0 0 0.593652811274)
(-0 0 0.593652811492)
(0 0 0.593652811389)
(-0 0 0.593652811437)
(0 0 0.593652811415)
(0 0 0.593652811425)
(0 0 0.593652811419)
(-0 0 0.593652811422)
(0 0 0.593652811421)
(0 0 0.593652811422)
(-0 0 0.593652811422)
(0 0 0.593652811422)
(0 0 0.593652811422)
(0 0 0.593652811422)
(0 0 0.593652811422)
(-0 0 0.505008101856)
(-0 0 0.593252428768)
(-0 0 0.573575727591)
(-0 0 0.590751730634)
(-0 0 0.583500460817)
(-0 0 0.586860117967)
(0 0 0.585136864666)
(0 0 0.585886648147)
(0 0 0.585515974501)
(0 0 0.5856874864)
(0 0 0.585607667426)
(0 0 0.585646139878)
(0 0 0.585628575768)
(-0 0 0.585637050481)
(-0 0 0.585633137265)
(-0 0 0.585634994033)
(-0 0 0.585634122106)
(-0 0 0.585634530337)
(0 0 0.58563433704)
(-0 0 0.585634427257)
(0 0 0.585634384577)
(-0 0 0.585634404564)
(0 0 0.585634395148)
(-0 0 0.585634399576)
(0 0 0.585634397496)
(-0 0 0.585634398475)
(0 0 0.585634398016)
(-0 0 0.585634398232)
(0 0 0.585634398129)
(-0 0 0.585634398177)
(0 0 0.585634398155)
(-0 0 0.585634398165)
(0 0 0.585634398159)
(-0 0 0.585634398162)
(0 0 0.585634398161)
(0 0 0.585634398162)
(-0 0 0.585634398162)
(-0 0 0.585634398162)
(0 0 0.585634398162)
(0 0 0.585634398162)
(0 0 0.585634398162)
(-0 0 0.50704251037)
(-0 0 0.592783717255)
(-0 0 0.56634032194)
(-0 0 0.581509247203)
(-0 0 0.573309942603)
(-0 0 0.57651309799)
(0 0 0.574790312722)
(0 0 0.57556280442)
(0 0 0.57521325024)
(0 0 0.575391580425)
(0 0 0.575315858931)
(0 0 0.575354795209)
(0 0 0.575337626012)
(-0 0 0.575345969891)
(-0 0 0.575342070224)
(-0 0 0.575343878337)
(-0 0 0.57534300775)
(-0 0 0.57534340667)
(0 0 0.575343215)
(-0 0 0.575343303829)
(0 0 0.575343261782)
(-0 0 0.575343281548)
(0 0 0.575343272293)
(-0 0 0.575343276672)
(0 0 0.575343274626)
(-0 0 0.575343275592)
(0 0 0.575343275139)
(-0 0 0.575343275352)
(0 0 0.575343275251)
(-0 0 0.575343275298)
(0 0 0.575343275276)
(-0 0 0.575343275286)
(0 0 0.57534327528)
(-0 0 0.575343275283)
(-0 0 0.575343275282)
(-0 0 0.575343275283)
(-0 0 0.575343275283)
(-0 0 0.575343275283)
(0 0 0.575343275283)
(0 0 0.575343275283)
(0 0 0.575343275283)
(-0 0 0.508222046447)
(-0 0 0.5904002349)
(-0 0 0.556258688592)
(-0 0 0.569334973052)
(-0 0 0.56021358278)
(-0 0 0.563271565799)
(0 0 0.561560022864)
(0 0 0.562354508755)
(0 0 0.562026661162)
(0 0 0.562210998634)
(0 0 0.562139335484)
(0 0 0.562178550132)
(0 0 0.562161784184)
(-0 0 0.562169970039)
(-0 0 0.562166092217)
(-0 0 0.56216784819)
(-0 0 0.56216698151)
(-0 0 0.562167370495)
(0 0 0.562167181005)
(-0 0 0.562167268279)
(0 0 0.56216722697)
(-0 0 0.562167246471)
(0 0 0.562167237395)
(-0 0 0.562167241716)
(0 0 0.562167239706)
(-0 0 0.562167240658)
(0 0 0.562167240212)
(-0 0 0.562167240422)
(0 0 0.562167240322)
(-0 0 0.562167240369)
(0 0 0.562167240346)
(-0 0 0.562167240357)
(0 0 0.562167240351)
(0 0 0.562167240354)
(0 0 0.562167240353)
(-0 0 0.562167240354)
(-0 0 0.562167240354)
(-0 0 0.562167240354)
(0 0 0.562167240354)
(0 0 0.562167240354)
(0 0 0.562167240354)
(-0 0 0.507830241363)
(-0 0 0.585098433706)
(-0 0 0.542416369196)
(-0 0 0.553385431162)
(-0 0 0.543421215953)
(-0 0 0.546351311235)
(0 0 0.54466481402)
(0 0 0.545478983103)
(0 0 0.545173036758)
(0 0 0.545362071304)
(0 0 0.545294345804)
(0 0 0.545333581437)
(0 0 0.545317230088)
(-0 0 0.545325224881)
(-0 0 0.545321381264)
(-0 0 0.545323081299)
(-0 0 0.545322222124)
(-0 0 0.54532260044)
(0 0 0.545322413864)
(-0 0 0.545322499365)
(0 0 0.545322458925)
(-0 0 0.5453224781)
(0 0 0.545322469229)
(-0 0 0.545322473477)
(0 0 0.54532247151)
(-0 0 0.545322472444)
(0 0 0.545322472007)
(-0 0 0.545322472212)
(0 0 0.545322472115)
(-0 0 0.54532247216)
(0 0 0.545322472138)
(-0 0 0.545322472149)
(0 0 0.545322472143)
(0 0 0.545322472146)
(0 0 0.545322472145)
(0 0 0.545322472146)
(-0 0 0.545322472146)
(-0 0 0.545322472146)
(0 0 0.545322472146)
(0 0 0.545322472145)
(-0 0 0.545322472146)
(-0 0 0.504792971588)
(-0 0 0.575495188209)
(-0 0 0.52365123743)
(-0 0 0.53258911917)
(-0 0 0.521926940902)
(-0 0 0.524750303124)
(0 0 0.523105927362)
(0 0 0.523935205572)
(0 0 0.523651028271)