/*--------------------------------*- C++ -*----------------------------------*\
| =========                 |                                                 |
| \\      /  F ield         | OpenFOAM: The Open Source CFD Toolbox           |
|  \\    /   O peration     | Version:  2112                                  |
|   \\  /    A nd           | Website:  www.openfoam.com                      |
|    \\/     M anipulation  |                                                 |
\*---------------------------------------------------------------------------*/
FoamFile
{
    version     2.0;
    format      ascii;
    arch        "LSB;label=32;scalar=64";
    class       volVectorField;
    location    "0.8";
    object      flux;
}
// * * * * * * * * * * * * * * * * * * * * * * * * * * * * * * * * * * * * * //

dimensions      [0 1 -1 1 0 0 0];

internalField   nonuniform List<vector> 
1681
(
(2622.58139237 -14.2379084547 0)
(0.0145578434802 -14.1357816802 0)
(0.0220265964902 -13.9463511298 0)
(0.0269154627605 -13.6947093671 0)
(0.0292620434412 -13.4074965895 0)
(0.0294744029089 -13.1090080502 0)
(0.0281581880247 -12.817664613 0)
(0.0258935054832 -12.5456141326 0)
(0.0231475090122 -12.299657244 0)
(0.0202552623342 -12.0825941824 0)
(0.0174344586002 -11.8945270352 0)
(0.0148124660517 -11.7339073637 0)
(0.0124531646664 -11.5982950819 0)
(0.010378816845 -11.4848683817 0)
(0.00858613017944 -11.3907450283 0)
(0.0070573051487 -11.3131711827 0)
(0.00576727364133 -11.2496219792 0)
(0.00468824479924 -11.1978457968 0)
(0.0037924328019 -11.1558740924 0)
(0.00305359708933 -11.1220112397 0)
(0.00244782780676 -11.0948136432 0)
(0.00195386432713 -11.0730639245 0)
(0.00155313426222 -11.0557437021 0)
(0.00122963281126 -11.0420070204 0)
(0.000969717989249 -11.0311555563 0)
(0.000761868563587 -11.0226161523 0)
(0.000596432992067 -11.0159208695 0)
(0.000465385913479 -11.0106895436 0)
(0.000362101080721 -11.0066147098 0)
(0.000281144737337 -11.0034487001 0)
(0.000218090217223 -11.0009927004 0)
(0.000169352503466 -10.9990875556 0)
(0.000132041097014 -10.9976061344 0)
(0.000103835670854 -10.9964470786 0)
(8.29276892741e-05 -10.9955296619 0)
(6.81718961131e-05 -10.9947887222 0)
(5.92902455064e-05 -10.9941663747 0)
(5.25642483983e-05 -10.9936017322 0)
(2.8431209679e-05 -10.9931089901 0)
(9.49053389517e-06 -10.9930345112 0)
(-2622.90065243 -10.9929320471 0)
(2619.74386961 -14.2412892925 0)
(0.0437536215012 -14.1385674984 0)
(0.0661878661119 -13.9481208903 0)
(0.0808554453107 -13.6953296592 0)
(0.0878782199471 -13.4070834832 0)
(0.0884919923813 -13.1077852267 0)
(0.0845205954975 -12.8158762052 0)
(0.0777079683143 -12.5434718408 0)
(0.069456481028 -12.2973211139 0)
(0.0607707794353 -12.0801740013 0)
(0.0523029051365 -11.8920920221 0)
(0.0444339245975 -11.7314973356 0)
(0.0373546317353 -11.5959300905 0)
(0.0311311938768 -11.482556005 0)
(0.0257533096298 -11.3884854707 0)
(0.0211673046828 -11.3109606494 0)
(0.0172978035288 -11.2474548084 0)
(0.0140613325541 -11.1957157446 0)
(0.0113744786209 -11.1537750635 0)
(0.00915849275743 -11.1199376671 0)
(0.00734163523085 -11.0927606524 0)
(0.00586012388368 -11.071027371 0)
(0.0046582465638 -11.0537201386 0)
(0.00368799635787 -11.0399936285 0)
(0.00290845562221 -11.0291500646 0)
(0.00228506879231 -11.0206167522 0)
(0.00178888874288 -11.0139261361 0)
(0.00139584602531 -11.0086983647 0)
(0.00108606762294 -11.0046262241 0)
(0.000843257138522 -11.0014622446 0)
(0.000654138692634 -10.9990077652 0)
(0.000507960689775 -10.9971037466 0)
(0.000396054299713 -10.9956231417 0)
(0.000311458847852 -10.994464654 0)
(0.000248743600001 -10.9935476305 0)
(0.000204485541119 -10.9928070623 0)
(0.000178107747236 -10.9921849484 0)
(0.000158912671063 -10.9916159933 0)
(8.50129830848e-05 -10.9911055286 0)
(2.58980619885e-05 -10.9910534186 0)
(-2620.70215436 -10.9909737501 0)
(2616.90542102 -14.2480965334 0)
(0.073191523918 -14.1441627338 0)
(0.110674164326 -13.9516720305 0)
(0.135122944192 -13.6965770671 0)
(0.146770929941 -13.4062598884 0)
(0.147715858508 -13.105342063 0)
(0.141020865202 -12.8123040529 0)
(0.129604523746 -12.5391948229 0)
(0.115807076906 -12.2926592365 0)
(0.101301080694 -12.0753464119 0)
(0.0871697917413 -11.8872366664 0)
(0.0740448523559 -11.7266934111 0)
(0.0622414307935 -11.5912173543 0)
(0.0518677408157 -11.4779493531 0)
(0.0429052012993 -11.383985121 0)
(0.0352634376078 -11.3065588728 0)
(0.0288162546055 -11.2431401775 0)
(0.0234241937758 -11.1914756932 0)
(0.018948048289 -11.1495973404 0)
(0.0152564793086 -11.1158110899 0)
(0.0122298870268 -11.0886754329 0)
(0.0097619670943 -11.0669751877 0)
(0.00775988276906 -11.0496940696 0)
(0.00614364760616 -11.0359880145 0)
(0.00484509324088 -11.0251603434 0)
(0.00380665426545 -11.0166392904 0)
(0.00298011049046 -11.00995807 0)
(0.00232536830436 -11.0047374587 0)
(0.00180932511763 -11.0006707462 0)
(0.00140483653248 -10.9975108606 0)
(0.00108978981509 -10.9950594494 0)
(0.000846277190687 -10.9931577059 0)
(0.000659859604249 -10.9916787523 0)
(0.000518937917798 -10.9905214147 0)
(0.000414446034263 -10.9896051684 0)
(0.000340708318207 -10.988865252 0)
(0.000297504043637 -10.9882436128 0)
(0.000268448199969 -10.9876686354 0)
(0.000140946156421 -10.9871313278 0)
(3.58462444017e-05 -10.9871123271 0)
(-2618.50424699 -10.9870605392 0)
(2614.06541775 -14.2584008444 0)
(0.103038522098 -14.1526096503 0)
(0.15570499945 -13.9570229223 0)
(0.189937873722 -13.6984553538 0)
(0.20612522077 -13.4050208825 0)
(0.207283159485 -13.1016727386 0)
(0.197750043519 -12.8069458886 0)
(0.181636931593 -12.5327858458 0)
(0.162226163209 -12.285679273 0)
(0.141855293462 -12.0681231565 0)
(0.122033505309 -11.8799758567 0)
(0.103637787009 -11.7195128064 0)
(0.0871034433365 -11.584175781 0)
(0.0725776405333 -11.471068561 0)
(0.0600314056825 -11.3772650136 0)
(0.0493362933845 -11.2999875578 0)
(0.0403144394602 -11.2367003026 0)
(0.0327698999834 -11.1851482569 0)
(0.026507399263 -11.1433638542 0)
(0.0213428742555 -11.1096546957 0)
(0.0171088156885 -11.0825813822 0)
(0.0136563965418 -11.0609309457 0)
(0.0108556811977 -11.0436892108 0)
(0.00859474159083 -11.0300140142 0)
(0.00677820044643 -11.0192103285 0)
(0.00532552346874 -11.0107077856 0)
(0.00416925507261 -11.0040407591 0)
(0.00325331079599 -10.9988309702 0)
(0.00253138724263 -10.9947724675 0)
(0.00196551648609 -10.9916187785 0)
(0.00152476963374 -10.9891720153 0)
(0.00118410011672 -10.9872737221 0)
(0.00092331255083 -10.9857972767 0)
(0.000726175633803 -10.9846416877 0)
(0.000579976125323 -10.9837265977 0)
(0.000476796660072 -10.9829875266 0)
(0.000417431081976 -10.9823665729 0)
(0.000381369660523 -10.9817862736 0)
(0.000196274632544 -10.981221905 0)
(4.00557821365e-05 -10.9812351366 0)
(-2616.30731978 -10.9812017912 0)
(2611.22321892 -14.2722864004 0)
(0.13346710834 -14.1639653355 0)
(0.20150502363 -13.96419386 0)
(0.245523352158 -13.7009588289 0)
(0.266127452987 -13.4033471731 0)
(0.267330857284 -13.0967559015 0)
(0.254798243747 -12.7997848404 0)
(0.233857846868 -12.5242347282 0)
(0.208739614769 -12.2763775248 0)
(0.182441763936 -12.0585058313 0)
(0.156891861757 -11.8703151317 0)
(0.133204867497 -11.709963835 0)
(0.111930279888 -11.5748155702 0)
(0.0932498943042 -11.4619250838 0)
(0.077121401924 -11.3683374314 0)
(0.0633763798141 -11.2912595335 0)
(0.0517841147914 -11.2281483764 0)
(0.0420914834558 -11.1767468762 0)
(0.0340467605342 -11.1350882187 0)
(0.0274129736974 -11.1014822245 0)
(0.0219746370155 -11.0744923365 0)
(0.0175404013801 -11.0529085572 0)
(0.0139432690861 -11.035719536 0)
(0.0110394240543 -11.0220856533 0)
(0.00870633894998 -11.01131409 0)
(0.00684056815532 -11.0028363462 0)
(0.00535547356721 -10.9961883444 0)
(0.0041790266239 -10.9909930688 0)
(0.00325176346145 -10.9869455822 0)
(0.00252492696438 -10.9838002136 0)
(0.00195880110049 -10.9813596965 0)
(0.00152122491523 -10.9794660446 0)
(0.00118626647487 -10.9779929781 0)
(0.000933073727402 -10.9768397477 0)
(0.000745278269474 -10.9759261975 0)
(0.000612713278727 -10.9751881469 0)
(0.000537754634945 -10.9745680531 0)
(0.000497381776602 -10.9739836404 0)
(0.000251173557445 -10.9733949066 0)
(3.98690058367e-05 -10.973435965 0)
(-2614.11175961 -10.9734129005 0)
(2608.37816741 -14.2898637956 0)
(0.164657030171 -14.1783060434 0)
(0.248306300758 -13.9732120209 0)
(0.302107211108 -13.7040782369 0)
(0.326965806267 -13.4012115617 0)
(0.327995626031 -13.0905619498 0)
(0.312254278173 -12.7907975058 0)
(0.286318394713 -12.5135271131 0)
(0.255371942585 -12.2647483204 0)
(0.223067772086 -12.0464958192 0)
(0.191741904564 -11.8582611062 0)
(0.162737699303 -11.6980567845 0)
(0.136711193591 -11.5631495005 0)
(0.113873268288 -11.4505333562 0)
(0.0941645157292 -11.3572179002 0)
(0.0773741043832 -11.2803910452 0)
(0.063216970932 -11.2175011244 0)
(0.0513819315249 -11.1662886036 0)
(0.0415603295907 -11.1247877172 0)
(0.0334620506952 -11.0913111284 0)
(0.0268235491616 -11.0644258768 0)
(0.0214109566416 -11.0429257056 0)
(0.0170202619717 -11.0258028136 0)
(0.0134758307884 -11.0122207714 0)
(0.0106280618725 -11.0014895286 0)
(0.00835067260402 -10.9930429254 0)
(0.00653791053647 -10.986418825 0)
(0.00510186322564 -10.9812417933 0)
(0.00396995829129 -10.9772081633 0)
(0.0030826936244 -10.9740732684 0)
(0.0023916034263 -10.971640621 0)
(0.00185744379322 -10.9697528236 0)
(0.00144857194808 -10.9682840256 0)
(0.0011395317603 -10.9671337793 0)
(0.000910296278804 -10.9662221656 0)
(0.000748425548112 -10.9654853149 0)
(0.000658332375145 -10.9648662195 0)
(0.000615998953904 -10.9642789252 0)
(0.000305809716512 -10.9636697857 0)
(3.64569984533e-05 -10.9637333209 0)
(-2611.91795001 -10.9637155413 0)
(2605.52958495 -14.3112743768 0)
(0.196797463287 -14.1957286248 0)
(0.296350584926 -13.9841120936 0)
(0.359923444004 -13.7078015245 0)
(0.388830710406 -13.3985799383 0)
(0.389413668456 -13.0830544493 0)
(0.3702052111 -12.7799557487 0)
(0.339067683958 -12.5006465363 0)
(0.302145873544 -12.2507862685 0)
(0.263739206783 -12.0320966763 0)
(0.2265796687 -11.8438239638 0)
(0.192227188633 -11.6838064994 0)
(0.161434965544 -11.5491955947 0)
(0.134436214354 -11.4369135329 0)
(0.111149864131 -11.3439279978 0)
(0.091319734974 -11.2674046264 0)
(0.0746046031101 -11.2047817325 0)
(0.0606341649087 -11.1537970819 0)
(0.0490422555673 -11.1124863231 0)
(0.0394853417722 -11.0791656298 0)
(0.0316517215695 -11.0524064198 0)
(0.0252650140264 -11.0310069648 0)
(0.0200842559226 -11.0139637471 0)
(0.0159020810552 -11.0004441821 0)
(0.0125419081554 -10.9897615512 0)
(0.00985470887203 -10.9813525109 0)
(0.00771569999771 -10.9747572575 0)
(0.00602115895864 -10.9696022594 0)
(0.00468546843626 -10.9655853774 0)
(0.0036384354148 -10.962463153 0)
(0.00282289006021 -10.9600400362 0)
(0.00219254400973 -10.9581593381 0)
(0.00171007532947 -10.9566957253 0)
(0.00134544571973 -10.955549112 0)
(0.0010749711497 -10.954639851 0)
(0.00088390249657 -10.9539043965 0)
(0.000779032586236 -10.9532864192 0)
(0.00073666854299 -10.9526973747 0)
(0.000360294407172 -10.9520722252 0)
(3.0717878247e-05 -10.9521529913 0)
(-2609.72626984 -10.9521379069 0)
(2602.67676681 -14.3366927572 0)
(0.230089486826 -14.2163513043 0)
(0.345891720818 -13.9969357196 0)
(0.419213642157 -13.7121131259 0)
(0.451915221297 -13.3954107728 0)
(0.451720463948 -13.0741900184 0)
(0.428735860789 -12.7672269103 0)
(0.392152290766 -12.4855748287 0)
(0.349081914585 -12.2344867511 0)
(0.304460233027 -12.0153146595 0)
(0.261399939944 -11.8270179942 0)
(0.221663373119 -11.6672329212 0)
(0.186089786891 -11.5329776612 0)
(0.154926787653 -11.4210920331 0)
(0.128066297028 -11.3284959042 0)
(0.105203357448 -11.2523296554 0)
(0.085938479819 -11.1900204104 0)
(0.0698410134025 -11.1393031142 0)
(0.0564866200229 -11.0982152772 0)
(0.045478031362 -11.0650773039 0)
(0.0364552821509 -11.0384658056 0)
(0.0290994911863 -11.0171843903 0)
(0.0231328185213 -11.0002345715 0)
(0.0183162699629 -10.9867882716 0)
(0.0144463961076 -10.9761626733 0)
(0.0113515313471 -10.9677977281 0)
(0.00888796084272 -10.9612363617 0)
(0.00693623924661 -10.9561072673 0)
(0.00539777955949 -10.9521100932 0)
(0.00419176186271 -10.9490027945 0)
(0.00325236640985 -10.9465909187 0)
(0.00252630598071 -10.9447186071 0)
(0.00197061716379 -10.9432611321 0)
(0.00155070660662 -10.9421188311 0)
(0.00123923939286 -10.9412123654 0)
(0.00101911191973 -10.9404785281 0)
(0.000899736738857 -10.9398617865 0)
(0.000858837748299 -10.9392720038 0)
(0.000414686384128 -10.9386351884 0)
(2.33206471371e-05 -10.9387284124 0)
(-2607.53709183 -10.9387148968 0)
(2599.81897614 -14.3663292182 0)
(0.264748870801 -14.2403143829 0)
(0.397198220604 -14.011730541 0)
(0.480228433363 -13.7169926854 0)
(0.516415331899 -13.3916541142 0)
(0.515050440952 -13.0639177968 0)
(0.487928249048 -12.7525736434 0)
(0.445615715803 -12.4682921492 0)
(0.396197907373 -12.2158460358 0)
(0.345232958162 -11.9961588535 0)
(0.296196016366 -11.8078617087 0)
(0.251035255237 -11.6483611855 0)
(0.210663143162 -11.5145253752 0)
(0.17533256576 -11.4031016102 0)
(0.144902339674 -11.3109564624 0)
(0.11901483372 -11.2352024116 0)
(0.0972099113547 -11.1732544458 0)
(0.0789951915564 -11.1228447164 0)
(0.0638874176197 -11.0820131399 0)
(0.0514352360933 -11.0490851322 0)
(0.041230304282 -11.0226433515 0)
(0.0329112608353 -11.0014975745 0)
(0.0261634796804 -10.9846551087 0)
(0.0207164606977 -10.9712930554 0)
(0.0163400168419 -10.9607330753 0)
(0.0128399712029 -10.952418898 0)
(0.0100537921556 -10.9458965783 0)
(0.00784641264999 -10.9407973599 0)
(0.00610636299518 -10.9368229401 0)
(0.00474227032452 -10.9337328957 0)
(0.00367972753857 -10.9313340336 0)
(0.00285850131546 -10.9294714488 0)
(0.00223003054388 -10.9280211093 0)
(0.00175519906836 -10.9268838375 0)
(0.00140303175064 -10.9259806423 0)
(0.00115401828071 -10.9252486738 0)
(0.00102033744823 -10.9246332949 0)
(0.000981988163791 -10.9240436784 0)
(0.000469012674981 -10.9233992297 0)
(1.47761912888e-05 -10.9235006551 0)
(-2605.35078117 -10.9234883299 0)
(2596.95543809 -14.4004324659 0)
(0.301009222262 -14.2677810222 0)
(0.450556060314 -14.0285490225 0)
(0.543228927515 -13.7224134393 0)
(0.582530199019 -13.3872503577 0)
(0.57953655812 -13.0521787912 0)
(0.547860990313 -12.7359536872 0)
(0.499497812289 -12.4487769862 0)
(0.443508573718 -12.1948613622 0)
(0.386057098445 -11.9746412699 0)
(0.330959473534 -11.7863779233 0)
(0.280330639817 -11.6272216838 0)
(0.235141701964 -11.493874321 0)
(0.195640570199 -11.3829813799 0)
(0.161646136733 -11.2913511992 0)
(0.132743760779 -11.2160660906 0)
(0.108410018867 -11.1545282165 0)
(0.0880892745896 -11.1044671297 0)
(0.071238536855 -11.0639258036 0)
(0.0573519890362 -11.0312355153 0)
(0.0459727937051 -11.0049858662 0)
(0.0366971397501 -10.9839936615 0)
(0.0291737223366 -10.9672727835 0)
(0.0231006766428 -10.954006196 0)
(0.0182212275887 -10.9435206211 0)
(0.0143188307471 -10.9352640565 0)
(0.0112122684657 -10.9287860894 0)
(0.00875096687825 -10.9237208434 0)
(0.00681067239672 -10.9197723296 0)
(0.00528954317033 -10.9167019571 0)
(0.00410465579346 -10.9143179569 0)
(0.00318889083283 -10.9124665031 0)
(0.00248813942433 -10.9110243512 0)
(0.00195880001283 -10.9098928716 0)
(0.0015662721255 -10.9089934606 0)
(0.0012885813878 -10.9082636474 0)
(0.00114073581421 -10.9076497741 0)
(0.00110565078525 -10.907061138 0)
(0.000523291050445 -10.9064126645 0)
(5.50062355395e-06 -10.9065184596 0)
(-2603.16769403 -10.9065072251 0)
(2594.08533344 -14.4392929594 0)
(0.339125559475 -14.2989381554 0)
(0.506271737187 -14.04744705 0)
(0.60848816632 -13.7283402989 0)
(0.650462261514 -13.3821288513 0)
(0.645309775061 -13.0389051903 0)
(0.608608610057 -12.7173196845 0)
(0.553834180798 -12.4270062318 0)
(0.491025050623 -12.1715311114 0)
(0.426929645943 -11.9507770302 0)
(0.365679933604 -11.762593925 0)
(0.309535975696 -11.6038502061 0)
(0.259511203925 -11.471066117 0)
(0.215837190123 -11.360776933 0)
(0.178285397542 -11.2697284293 0)
(0.146379430256 -11.194970906 0)
(0.119529703528 -11.133893293 0)
(0.0971156741489 -11.0842229238 0)
(0.078533740495 -11.0440065988 0)
(0.0632232235714 -11.0115823818 0)
(0.0506786750421 -10.9855477615 0)
(0.0404538773743 -10.9647274625 0)
(0.032160972794 -10.9481427414 0)
(0.0254668931678 -10.9349831219 0)
(0.0200884447393 -10.9245809802 0)
(0.0157868775421 -10.9163890776 0)
(0.0123624347809 -10.9099609433 0)
(0.00964916461738 -10.9049339134 0)
(0.00751014024844 -10.9010145822 0)
(0.00583314486328 -10.8979664047 0)
(0.00452681834122 -10.8955992039 0)
(0.00351722246301 -10.8937603609 0)
(0.00274475684591 -10.8923275129 0)
(0.00216137717528 -10.8912026428 0)
(0.00172887658908 -10.8903075751 0)
(0.00142275557898 -10.8895802417 0)
(0.00126083932467 -10.8889680362 0)
(0.0012294100985 -10.8883811184 0)
(0.000577548359635 -10.8877317774 0)
(-4.13593407098e-06 -10.8878384045 0)
(-2600.98817604 -10.8878281547 0)
(2591.20779186 -14.4832469591 0)
(0.379378404132 -14.3339975263 0)
(0.564675631618 -14.0684822386 0)
(0.676292567248 -13.7347276081 0)
(0.720417220737 -13.3762063494 0)
(0.712498391481 -13.0240196713 0)
(0.670240782019 -12.6966190654 0)
(0.608655526921 -12.4029553503 0)
(0.538754414034 -12.145855075 0)
(0.467844535729 -11.9245846477 0)
(0.400344838357 -11.7365417352 0)
(0.338636201419 -11.5782881827 0)
(0.283756356572 -11.4461486381 0)
(0.235908107726 -11.3365405469 0)
(0.194807342131 -11.2461434632 0)
(0.159910788035 -11.1719742965 0)
(0.130559615313 -11.1114086468 0)
(0.106066613431 -11.0621722092 0)
(0.0857666452617 -11.0223165108 0)
(0.0690437565041 -10.9901874093 0)
(0.0553437775695 -10.9643912781 0)
(0.0441781437593 -10.9437616845 0)
(0.0351225904583 -10.927328082 0)
(0.0278130288952 -10.9142872646 0)
(0.0219400364321 -10.9039778664 0)
(0.017242838125 -10.8958579156 0)
(0.0135033013046 -10.8894852979 0)
(0.0105402390979 -10.8845009009 0)
(0.00820417414651 -10.8806141745 0)
(0.00637261883579 -10.8775908381 0)
(0.00494586454777 -10.8752424781 0)
(0.00384322901939 -10.8734178141 0)
(0.00299968303736 -10.8719954614 0)
(0.0023627875754 -10.8708780815 0)
(0.00189075235105 -10.8699879682 0)
(0.00155648916504 -10.8692634813 0)
(0.00138056048646 -10.8686531264 0)
(0.00135290256222 -10.868068598 0)
(0.000631833823273 -10.8674211137 0)
(-1.37748361234e-05 -10.867525199 0)
(-2598.81256072 -10.8675156572 0)
(2588.32188454 -14.5326814293 0)
(0.422078503587 -14.3731968371 0)
(0.626125720823 -14.09171185 0)
(0.746943344146 -13.7415165196 0)
(0.792603848876 -13.3693852983 0)
(0.781227231875 -13.0074347006 0)
(0.732821474252 -12.6737939983 0)
(0.663986978868 -12.3765986371 0)
(0.58669919114 -12.1178348165 0)
(0.508792313902 -11.8960863972 0)
(0.434939226609 -11.7082584571 0)
(0.367614595118 -11.5505830049 0)
(0.307860731079 -11.4191763191 0)
(0.255838225108 -11.3103314777 0)
(0.211198647613 -11.2206588947 0)
(0.173326393546 -11.1471412142 0)
(0.141490121006 -11.0871409424 0)
(0.114934101332 -11.0383829346 0)
(0.0929307004653 -10.9989244827 0)
(0.0748082701202 -10.967120334 0)
(0.059963820005 -10.9415868002 0)
(0.047866516595 -10.9211672512 0)
(0.0380558567703 -10.9049001829 0)
(0.0301369362807 -10.8919903873 0)
(0.0237743145405 -10.8817833705 0)
(0.0186853912363 -10.8737429395 0)
(0.0146338377287 -10.8674317587 0)
(0.0114233893103 -10.8624946108 0)
(0.00889215280117 -10.85864408 0)
(0.00690748414784 -10.8556483729 0)
(0.00536142315193 -10.8533210149 0)
(0.00416662579772 -10.8515121995 0)
(0.00325270336535 -10.85010162 0)
(0.00256287581176 -10.8489926842 0)
(0.00205179663142 -10.8481081968 0)
(0.00168972394117 -10.8473869692 0)
(0.0014998159716 -10.8467786696 0)
(0.00147581263708 -10.8461971412 0)
(0.000686228154722 -10.8455538421 0)
(-2.30446389032e-05 -10.8456520616 0)
(-2596.64116787 -10.8456426893 0)
(2585.42661621 -14.5880399425 0)
(0.467572320004 -14.4168009726 0)
(0.691011695128 -14.1171901958 0)
(0.820757877575 -13.7486319192 0)
(0.867233584538 -13.3615519352 0)
(0.851616651497 -12.9890518262 0)
(0.796407994719 -12.6487814051 0)
(0.719847363273 -12.3479095557 0)
(0.634856862009 -12.0874741048 0)
(0.5497598076 -11.8653087489 0)
(0.469445516811 -11.6777866801 0)
(0.396452629033 -11.520788401 0)
(0.33180666201 -11.3902105086 0)
(0.27561159259 -11.282216304 0)
(0.22744539485 -11.193344941 0)
(0.186614378502 -11.1205444652 0)
(0.152311271232 -11.0611648832 0)
(0.123709905381 -11.0129312381 0)
(0.100019165363 -10.9739077728 0)
(0.0805112930011 -10.9424593145 0)
(0.0645343941416 -10.9172132258 0)
(0.0515154672136 -10.8970236782 0)
(0.0409579632309 -10.8809390813 0)
(0.0324363913854 -10.8681729697 0)
(0.0255895259904 -10.8580783486 0)
(0.0201131604788 -10.8501253256 0)
(0.0157529670615 -10.8438817729 0)
(0.0122977748281 -10.8389967195 0)
(0.00957342171479 -10.8351861682 0)
(0.0074372318721 -10.8322210408 0)
(0.00577309922848 -10.8299169829 0)
(0.0044871079862 -10.828125802 0)
(0.00350358609716 -10.8267283725 0)
(0.00276147221259 -10.8256289188 0)
(0.00221189535461 -10.8247507976 0)
(0.00182239461603 -10.8240332938 0)
(0.00161852609259 -10.8234272769 0)
(0.00159786805882 -10.8228493016 0)
(0.000740849739262 -10.8222121638 0)
(-3.1544272562e-05 -10.8223011477 0)
(-2594.47430177 -10.8222910959 0)
(2582.52091636 -14.6498297687 0)
(0.51624845293 -14.4651032541 0)
(0.759759531511 -14.144965379 0)
(0.898070996268 -13.75597882 0)
(0.944519867467 -13.352574186 0)
(0.92378133789 -12.968760965 0)
(0.861049928355 -12.6215130385 0)
(0.776248438919 -12.3168611436 0)
(0.683219352501 -12.0547794059 0)
(0.590729798849 -11.8322828464 0)
(0.503843296184 -11.6451749197 0)
(0.425129829427 -11.4889648402 0)
(0.355575150471 -11.35931985 0)
(0.295211338624 -11.2522692937 0)
(0.243533015375 -11.1642798045 0)
(0.199762405103 -11.0922650737 0)
(0.163012766441 -11.033563578 0)
(0.132385523404 -10.9859018202 0)
(0.107025085175 -10.9473523351 0)
(0.0861471795379 -10.9162913181 0)
(0.0690509472641 -10.8913583594 0)
(0.0551213454849 -10.8714194719 0)
(0.0438259984651 -10.8555338772 0)
(0.0347090828298 -10.8429246164 0)
(0.0273838433727 -10.8329528345 0)
(0.0215247063774 -10.825095472 0)
(0.0168595589542 -10.8189260475 0)
(0.0131625102427 -10.8140981945 0)
(0.0102472885289 -10.8103316257 0)
(0.00796132121103 -10.8074002128 0)
(0.00618047092185 -10.8051219083 0)
(0.00480434788352 -10.8033502791 0)
(0.00375208000118 -10.8019674886 0)
(0.00295839077715 -10.8008786508 0)
(0.00237092163827 -10.800007715 0)
(0.00195442808509 -10.7992944573 0)
(0.00173661439344 -10.7986909757 0)
(0.00171883526128 -10.7981170516 0)
(0.000795858944397 -10.797487739 0)
(-3.88310535695e-05 -10.7975639937 0)
(-2592.31224942 -10.7975520776 0)
(2579.6036296 -14.7186303739 0)
(0.568545197941 -14.5184266637 0)
(0.832836581939 -14.1750751949 0)
(0.97923611618 -13.763438143 0)
(1.02467715555 -13.3422993544 0)
(0.997828880996 -12.946439695 0)
(0.926787958992 -12.5919156238 0)
(0.833194089792 -12.2834264792 0)
(0.731772521448 -12.019760415 0)
(0.631680704834 -11.7970450099 0)
(0.53810911806 -11.6104780702 0)
(0.453623642974 -11.4551799429 0)
(0.379145771311 -11.3265806626 0)
(0.314619601693 -11.2205727693 0)
(0.259446238848 -11.1335500321 0)
(0.212757623794 -11.0623926393 0)
(0.173583921927 -11.0044289033 0)
(0.140952153963 -10.957388311 0)
(0.113941265792 -10.9193531917 0)
(0.0917100881552 -10.8887125003 0)
(0.0735087633763 -10.8641192975 0)
(0.058680363649 -10.84445252 0)
(0.0466569343303 -10.8287831291 0)
(0.0369525999307 -10.8163444565 0)
(0.0291553548644 -10.8065064428 0)
(0.0229185178726 -10.7987534058 0)
(0.0179524225569 -10.7926649583 0)
(0.0140166591799 -10.7878997059 0)
(0.0109130180594 -10.7841813696 0)
(0.00847917535322 -10.7812870133 0)
(0.00658308597359 -10.7790370902 0)
(0.00511799192389 -10.7772870778 0)
(0.00399791175385 -10.7759205419 0)
(0.00315342693795 -10.7748435618 0)
(0.00252873406243 -10.77398072 0)
(0.00208574248481 -10.7732722965 0)
(0.00185400722784 -10.7726716306 0)
(0.00183851538385 -10.7721022023 0)
(0.000851461315408 -10.7714821018 0)
(-4.44119882169e-05 -10.7715419463 0)
(-2590.15527856 -10.7715266322 0)
(2576.67350495 -14.7951036129 0)
(0.624959488734 -14.5771249512 0)
(0.910757235643 -14.2075419747 0)
(1.06462616437 -13.7708617916 0)
(1.10791955707 -13.3305516036 0)
(1.07385808402 -12.9219525711 0)
(0.99365257151 -12.5599110739 0)
(0.890679480681 -12.247579205 0)
(0.780495646362 -11.9824306191 0)
(0.672586267804 -11.7596372464 0)
(0.572216309595 -11.5737578506 0)
(0.481909310945 -11.4195088751 0)
(0.40249658518 -11.2920773017 0)
(0.333817464713 -11.1872174493 0)
(0.275169041386 -11.1012508469 0)
(0.225586630872 -11.0310256672 0)
(0.184013632092 -10.9738618342 0)
(0.149400665731 -10.9274936055 0)
(0.120760247312 -10.8900147736 0)
(0.0971939583778 -10.8598285512 0)
(0.0779029433274 -10.8356027797 0)
(0.0621885791517 -10.8162304479 0)
(0.0494476111709 -10.8007952147 0)
(0.0391644200902 -10.7885415079 0)
(0.0309020535134 -10.7788487366 0)
(0.0242930032773 -10.7712091523 0)
(0.0190302989348 -10.765208922 0)
(0.014859227983 -10.7605119995 0)
(0.0115698270351 -10.7568464225 0)
(0.00899017710308 -10.7539926968 0)
(0.00698045803879 -10.7517739777 0)
(0.00542765754518 -10.7500478123 0)
(0.00424078319257 -10.7486992878 0)
(0.00334635514513 -10.7476355289 0)
(0.00268517469915 -10.7467817911 0)
(0.00221624596948 -10.7460788647 0)
(0.00197063324005 -10.7454813274 0)
(0.00195674101759 -10.7449167874 0)
(0.000907910136918 -10.7443070359 0)
(-4.77371267555e-05 -10.7443465509 0)
(-2588.0036357 -10.7443259495 0)
(2573.72918389 -14.8800059712 0)
(0.686057525575 -14.6415835061 0)
(0.994089213864 -14.2423661033 0)
(1.15463419041 -13.7780669274 0)
(1.19445899965 -13.3171292432 0)
(1.15195698692 -12.8951504894 0)
(1.0616626322 -12.5254167877 0)
(0.948690180754 -12.2092941039 0)
(0.829360913168 -11.9428078765 0)
(0.713415258544 -11.7201077518 0)
(0.606134792317 -11.5350832257 0)
(0.509959752738 -11.382034708 0)
(0.425604056469 -11.2559024778 0)
(0.352784892656 -11.1523027424 0)
(0.29068459527 -11.0674864304 0)
(0.238235426335 -10.9982718459 0)
(0.194290334278 -10.9419727223 0)
(0.157721566094 -10.8963301433 0)
(0.127474276649 -10.8594512043 0)
(0.102592486932 -10.8297549822 0)
(0.0822283840281 -10.8059254804 0)
(0.0656418766485 -10.7868709139 0)
(0.0521947223246 -10.7716886292 0)
(0.0413418955508 -10.7596349794 0)
(0.0326218259855 -10.7500995313 0)
(0.0256464807828 -10.7425830424 0)
(0.0200918531227 -10.7366787045 0)
(0.0156891590905 -10.7320562076 0)
(0.0122168786025 -10.7284482234 0)
(0.009493664312 -10.7256389594 0)
(0.00737206286939 -10.723454483 0)
(0.00573292990469 -10.7217545777 0)
(0.00448036843334 -10.7204259782 0)
(0.00353692627128 -10.7193769393 0)
(0.0028400669124 -10.7185334295 0)
(0.00234583521706 -10.7178367481 0)
(0.00208642267465 -10.7172426911 0)
(0.00207337370019 -10.716683382 0)
(0.00096550861863 -10.7160848859 0)
(-4.81947084585e-05 -10.7160998735 0)
(-2585.85754406 -10.7160717371 0)
(2570.76918706 -14.9742033076 0)
(0.752487462307 -14.7122198275 0)
(1.08346055137 -14.2795178809 0)
(1.24967353639 -13.7848293488 0)
(1.28450284468 -13.3018018522 0)
(1.23220057513 -12.8658701372 0)
(1.13082384861 -12.4883460459 0)
(1.00720126291 -12.1685477265 0)
(0.878332916781 -11.9009150021 0)
(0.754131197966 -11.6785113885 0)
(0.639830918349 -11.4945307845 0)
(0.537745460521 -11.3428487227 0)
(0.448442978292 -11.2181575133 0)
(0.371500674199 -11.1159369759 0)
(0.305975220697 -11.0323701346 0)
(0.250689372486 -10.9642482506 0)
(0.204401972612 -10.9088814965 0)
(0.165904969332 -10.86402011 0)
(0.13407527953 -10.8277865025 0)
(0.107899103168 -10.7986173318 0)
(0.0864797569837 -10.7752142163 0)
(0.0690359493864 -10.7565018194 0)
(0.054894798076 -10.7415921984 0)
(0.0434822396649 -10.7297544846 0)
(0.0343124409153 -10.7203891116 0)
(0.0269771686455 -10.7130059294 0)
(0.0211356659 -10.7072056397 0)
(0.0165053242045 -10.7026640678 0)
(0.0128532766646 -10.6991188484 0)
(0.00998892518082 -10.6963581602 0)
(0.00775733437581 -10.6942112024 0)
(0.00603335851145 -10.6925401713 0)
(0.00471631087372 -10.6912335829 0)
(0.0037248648767 -10.6902009128 0)
(0.00299321293566 -10.6893688824 0)
(0.00247439364103 -10.6886792911 0)
(0.00220130647079 -10.688089112 0)
(0.00218830206993 -10.6875353289 0)
(0.00102461183704 -10.6869487776 0)
(-4.51073753037e-05 -10.6869347297 0)
(-2583.71720138 -10.6868964518 0)
(2567.79189926 -15.0786886612 0)
(0.824994610917 -14.7894833617 0)
(1.1795673096 -14.3189273167 0)
(1.35017739614 -13.7908758755 0)
(1.37825084196 -13.2843072834 0)
(1.31464814819 -12.8339335731 0)
(1.20112711435 -12.4486085233 0)
(1.06617638951 -12.1253190679 0)
(0.927368180769 -11.8567803477 0)
(0.794692102067 -11.6349101233 0)
(0.673267325481 -11.4521850572 0)
(0.565234406964 -11.3020506425 0)
(0.470986405831 -11.1789525188 0)
(0.389942368411 -11.0782375363 0)
(0.321022340317 -10.996024602 0)
(0.262933153954 -10.9290814524 0)
(0.214335962407 -10.8747177651 0)
(0.173940564891 -10.8306955364 0)
(0.140554832296 -10.7951546802 0)
(0.11310694417 -10.7665512638 0)
(0.0906514864953 -10.743606046 0)
(0.0723662802339 -10.7252614094 0)
(0.0575441892977 -10.7106451794 0)
(0.0455825128999 -10.6990401444 0)
(0.0359715370198 -10.6898583337 0)
(0.0282831751762 -10.682619293 0)
(0.0221602254347 -10.6769317333 0)
(0.017306517337 -10.6724780279 0)
(0.0134780601326 -10.6690011149 0)
(0.0104751935084 -10.6662934251 0)
(0.0081356606464 -10.6641875209 0)
(0.00632845381518 -10.662548197 0)
(0.00494822013654 -10.6612658945 0)
(0.00390986636146 -10.6602514064 0)
(0.00314439124268 -10.6594322487 0)
(0.00260178930436 -10.6587507023 0)
(0.00231521511385 -10.6581648541 0)
(0.0023014405838 -10.6576168487 0)
(0.00108562845912 -10.6570427214 0)
(-3.77295472107e-05 -10.6569947966 0)
(-2581.58277782 -10.6569434133 0)
(2564.79555265 -15.194603837 0)
(0.904439731195 -14.8738543842 0)
(1.28318204861 -14.3604713444 0)
(1.45659754305 -13.7958756526 0)
(1.47589130515 -13.2643486255 0)
(1.39934032715 -12.799147993 0)
(1.27254674965 -12.4061109355 0)
(1.12556689805 -12.0795902908 0)
(0.976414705713 -11.8104383646 0)
(0.835050256058 -11.5893734082 0)
(0.706402814506 -11.4081387548 0)
(0.592391968205 -11.259748773 0)
(0.493205599523 -11.1384064679 0)
(0.408086257547 -11.0393309039 0)
(0.335806437494 -10.9585817739 0)
(0.274950739879 -10.892907509 0)