/*--------------------------------*- C++ -*----------------------------------*\
| =========                 |                                                 |
| \\      /  F ield         | OpenFOAM: The Open Source CFD Toolbox           |
|  \\    /   O peration     | Version:  2112                                  |
|   \\  /    A nd           | Website:  www.openfoam.com                      |
|    \\/     M anipulation  |                                                 |
\*---------------------------------------------------------------------------*/
FoamFile
{
    version     2.0;
    format      ascii;
    arch        "LSB;label=32;scalar=64";
    class       volScalarField;
    location    "0.8";
    object      gradTy;
}
// * * * * * * * * * * * * * * * * * * * * * * * * * * * * * * * * * * * * * //

dimensions      [0 -1 0 1 0 0 0];

internalField   nonuniform List<scalar> 
1681
(
-14.2379084547
-14.1357816802
-13.9463511298
-13.6947093671
-13.4074965895
-13.1090080502
-12.817664613
-12.5456141326
-12.299657244
-12.0825941824
-11.8945270352
-11.7339073637
-11.5982950819
-11.4848683817
-11.3907450283
-11.3131711827
-11.2496219792
-11.1978457968
-11.1558740924
-11.1220112397
-11.0948136432
-11.0730639245
-11.0557437021
-11.0420070204
-11.0311555563
-11.0226161523
-11.0159208695
-11.0106895436
-11.0066147098
-11.0034487001
-11.0009927004
-10.9990875556
-10.9976061344
-10.9964470786
-10.9955296619
-10.9947887222
-10.9941663747
-10.9936017322
-10.9931089901
-10.9930345112
-10.9929320471
-14.2412892925
-14.1385674984
-13.9481208903
-13.6953296592
-13.4070834832
-13.1077852267
-12.8158762052
-12.5434718408
-12.2973211139
-12.0801740013
-11.8920920221
-11.7314973356
-11.5959300905
-11.482556005
-11.3884854707
-11.3109606494
-11.2474548084
-11.1957157446
-11.1537750635
-11.1199376671
-11.0927606524
-11.071027371
-11.0537201386
-11.0399936285
-11.0291500646
-11.0206167522
-11.0139261361
-11.0086983647
-11.0046262241
-11.0014622446
-10.9990077652
-10.9971037466
-10.9956231417
-10.994464654
-10.9935476305
-10.9928070623
-10.9921849484
-10.9916159933
-10.9911055286
-10.9910534186
-10.9909737501
-14.2480965334
-14.1441627338
-13.9516720305
-13.6965770671
-13.4062598884
-13.105342063
-12.8123040529
-12.5391948229
-12.2926592365
-12.0753464119
-11.8872366664
-11.7266934111
-11.5912173543
-11.4779493531
-11.383985121
-11.3065588728
-11.2431401775
-11.1914756932
-11.1495973404
-11.1158110899
-11.0886754329
-11.0669751877
-11.0496940696
-11.0359880145
-11.0251603434
-11.0166392904
-11.00995807
-11.0047374587
-11.0006707462
-10.9975108606
-10.9950594494
-10.9931577059
-10.9916787523
-10.9905214147
-10.9896051684
-10.988865252
-10.9882436128
-10.9876686354
-10.9871313278
-10.9871123271
-10.9870605392
-14.2584008444
-14.1526096503
-13.9570229223
-13.6984553538
-13.4050208825
-13.1016727386
-12.8069458886
-12.5327858458
-12.285679273
-12.0681231565
-11.8799758567
-11.7195128064
-11.584175781
-11.471068561
-11.3772650136
-11.2999875578
-11.2367003026
-11.1851482569
-11.1433638542
-11.1096546957
-11.0825813822
-11.0609309457
-11.0436892108
-11.0300140142
-11.0192103285
-11.0107077856
-11.0040407591
-10.9988309702
-10.9947724675
-10.9916187785
-10.9891720153
-10.9872737221
-10.9857972767
-10.9846416877
-10.9837265977
-10.9829875266
-10.9823665729
-10.9817862736
-10.981221905
-10.9812351366
-10.9812017912
-14.2722864004
-14.1639653355
-13.96419386
-13.7009588289
-13.4033471731
-13.0967559015
-12.7997848404
-12.5242347282
-12.2763775248
-12.0585058313
-11.8703151317
-11.709963835
-11.5748155702
-11.4619250838
-11.3683374314
-11.2912595335
-11.2281483764
-11.1767468762
-11.1350882187
-11.1014822245
-11.0744923365
-11.0529085572
-11.035719536
-11.0220856533
-11.01131409
-11.0028363462
-10.9961883444
-10.9909930688
-10.9869455822
-10.9838002136
-10.9813596965
-10.9794660446
-10.9779929781
-10.9768397477
-10.9759261975
-10.9751881469
-10.9745680531
-10.9739836404
-10.9733949066
-10.973435965
-10.9734129005
-14.2898637956
-14.1783060434
-13.9732120209
-13.7040782369
-13.4012115617
-13.0905619498
-12.7907975058
-12.5135271131
-12.2647483204
-12.0464958192
-11.8582611062
-11.6980567845
-11.5631495005
-11.4505333562
-11.3572179002
-11.2803910452
-11.2175011244
-11.1662886036
-11.1247877172
-11.0913111284
-11.0644258768
-11.0429257056
-11.0258028136
-11.0122207714
-11.0014895286
-10.9930429254
-10.986418825
-10.9812417933
-10.9772081633
-10.9740732684
-10.971640621
-10.9697528236
-10.9682840256
-10.9671337793
-10.9662221656
-10.9654853149
-10.9648662195
-10.9642789252
-10.9636697857
-10.9637333209
-10.9637155413
-14.3112743768
-14.1957286248
-13.9841120936
-13.7078015245
-13.3985799383
-13.0830544493
-12.7799557487
-12.5006465363
-12.2507862685
-12.0320966763
-11.8438239638
-11.6838064994
-11.5491955947
-11.4369135329
-11.3439279978
-11.2674046264
-11.2047817325
-11.1537970819
-11.1124863231
-11.0791656298
-11.0524064198
-11.0310069648
-11.0139637471
-11.0004441821
-10.9897615512
-10.9813525109
-10.9747572575
-10.9696022594
-10.9655853774
-10.962463153
-10.9600400362
-10.9581593381
-10.9566957253
-10.955549112
-10.954639851
-10.9539043965
-10.9532864192
-10.9526973747
-10.9520722252
-10.9521529913
-10.9521379069
-14.3366927572
-14.2163513043
-13.9969357196
-13.7121131259
-13.3954107728
-13.0741900184
-12.7672269103
-12.4855748287
-12.2344867511
-12.0153146595
-11.8270179942
-11.6672329212
-11.5329776612
-11.4210920331
-11.3284959042
-11.2523296554
-11.1900204104
-11.1393031142
-11.0982152772
-11.0650773039
-11.0384658056
-11.0171843903
-11.0002345715
-10.9867882716
-10.9761626733
-10.9677977281
-10.9612363617
-10.9561072673
-10.9521100932
-10.9490027945
-10.9465909187
-10.9447186071
-10.9432611321
-10.9421188311
-10.9412123654
-10.9404785281
-10.9398617865
-10.9392720038
-10.9386351884
-10.9387284124
-10.9387148968
-14.3663292182
-14.2403143829
-14.011730541
-13.7169926854
-13.3916541142
-13.0639177968
-12.7525736434
-12.4682921492
-12.2158460358
-11.9961588535
-11.8078617087
-11.6483611855
-11.5145253752
-11.4031016102
-11.3109564624
-11.2352024116
-11.1732544458
-11.1228447164
-11.0820131399
-11.0490851322
-11.0226433515
-11.0014975745
-10.9846551087
-10.9712930554
-10.9607330753
-10.952418898
-10.9458965783
-10.9407973599
-10.9368229401
-10.9337328957
-10.9313340336
-10.9294714488
-10.9280211093
-10.9268838375
-10.9259806423
-10.9252486738
-10.9246332949
-10.9240436784
-10.9233992297
-10.9235006551
-10.9234883299
-14.4004324659
-14.2677810222
-14.0285490225
-13.7224134393
-13.3872503577
-13.0521787912
-12.7359536872
-12.4487769862
-12.1948613622
-11.9746412699
-11.7863779233
-11.6272216838
-11.493874321
-11.3829813799
-11.2913511992
-11.2160660906
-11.1545282165
-11.1044671297
-11.0639258036
-11.0312355153
-11.0049858662
-10.9839936615
-10.9672727835
-10.954006196
-10.9435206211
-10.9352640565
-10.9287860894
-10.9237208434
-10.9197723296
-10.9167019571
-10.9143179569
-10.9124665031
-10.9110243512
-10.9098928716
-10.9089934606
-10.9082636474
-10.9076497741
-10.907061138
-10.9064126645
-10.9065184596
-10.9065072251
-14.4392929594
-14.2989381554
-14.04744705
-13.7283402989
-13.3821288513
-13.0389051903
-12.7173196845
-12.4270062318
-12.1715311114
-11.9507770302
-11.762593925
-11.6038502061
-11.471066117
-11.360776933
-11.2697284293
-11.194970906
-11.133893293
-11.0842229238
-11.0440065988
-11.0115823818
-10.9855477615
-10.9647274625
-10.9481427414
-10.9349831219
-10.9245809802
-10.9163890776
-10.9099609433
-10.9049339134
-10.9010145822
-10.8979664047
-10.8955992039
-10.8937603609
-10.8923275129
-10.8912026428
-10.8903075751
-10.8895802417
-10.8889680362
-10.8883811184
-10.8877317774
-10.8878384045
-10.8878281547
-14.4832469591
-14.3339975263
-14.0684822386
-13.7347276081
-13.3762063494
-13.0240196713
-12.6966190654
-12.4029553503
-12.145855075
-11.9245846477
-11.7365417352
-11.5782881827
-11.4461486381
-11.3365405469
-11.2461434632
-11.1719742965
-11.1114086468
-11.0621722092
-11.0223165108
-10.9901874093
-10.9643912781
-10.9437616845
-10.927328082
-10.9142872646
-10.9039778664
-10.8958579156
-10.8894852979
-10.8845009009
-10.8806141745
-10.8775908381
-10.8752424781
-10.8734178141
-10.8719954614
-10.8708780815
-10.8699879682
-10.8692634813
-10.8686531264
-10.868068598
-10.8674211137
-10.867525199
-10.8675156572
-14.5326814293
-14.3731968371
-14.09171185
-13.7415165196
-13.3693852983
-13.0074347006
-12.6737939983
-12.3765986371
-12.1178348165
-11.8960863972
-11.7082584571
-11.5505830049
-11.4191763191
-11.3103314777
-11.2206588947
-11.1471412142
-11.0871409424
-11.0383829346
-10.9989244827
-10.967120334
-10.9415868002
-10.9211672512
-10.9049001829
-10.8919903873
-10.8817833705
-10.8737429395
-10.8674317587
-10.8624946108
-10.85864408
-10.8556483729
-10.8533210149
-10.8515121995
-10.85010162
-10.8489926842
-10.8481081968
-10.8473869692
-10.8467786696
-10.8461971412
-10.8455538421
-10.8456520616
-10.8456426893
-14.5880399425
-14.4168009726
-14.1171901958
-13.7486319192
-13.3615519352
-12.9890518262
-12.6487814051
-12.3479095557
-12.0874741048
-11.8653087489
-11.6777866801
-11.520788401
-11.3902105086
-11.282216304
-11.193344941
-11.1205444652
-11.0611648832
-11.0129312381
-10.9739077728
-10.9424593145
-10.9172132258
-10.8970236782
-10.8809390813
-10.8681729697
-10.8580783486
-10.8501253256
-10.8438817729
-10.8389967195
-10.8351861682
-10.8322210408
-10.8299169829
-10.828125802
-10.8267283725
-10.8256289188
-10.8247507976
-10.8240332938
-10.8234272769
-10.8228493016
-10.8222121638
-10.8223011477
-10.8222910959
-14.6498297687
-14.4651032541
-14.144965379
-13.75597882
-13.352574186
-12.968760965
-12.6215130385
-12.3168611436
-12.0547794059
-11.8322828464
-11.6451749197
-11.4889648402
-11.35931985
-11.2522692937
-11.1642798045
-11.0922650737
-11.033563578
-10.9859018202
-10.9473523351
-10.9162913181
-10.8913583594
-10.8714194719
-10.8555338772
-10.8429246164
-10.8329528345
-10.825095472
-10.8189260475
-10.8140981945
-10.8103316257
-10.8074002128
-10.8051219083
-10.8033502791
-10.8019674886
-10.8008786508
-10.800007715
-10.7992944573
-10.7986909757
-10.7981170516
-10.797487739
-10.7975639937
-10.7975520776
-14.7186303739
-14.5184266637
-14.1750751949
-13.763438143
-13.3422993544
-12.946439695
-12.5919156238
-12.2834264792
-12.019760415
-11.7970450099
-11.6104780702
-11.4551799429
-11.3265806626
-11.2205727693
-11.1335500321
-11.0623926393
-11.0044289033
-10.957388311
-10.9193531917
-10.8887125003
-10.8641192975
-10.84445252
-10.8287831291
-10.8163444565
-10.8065064428
-10.7987534058
-10.7926649583
-10.7878997059
-10.7841813696
-10.7812870133
-10.7790370902
-10.7772870778
-10.7759205419
-10.7748435618
-10.77398072
-10.7732722965
-10.7726716306
-10.7721022023
-10.7714821018
-10.7715419463
-10.7715266322
-14.7951036129
-14.5771249512
-14.2075419747
-13.7708617916
-13.3305516036
-12.9219525711
-12.5599110739
-12.247579205
-11.9824306191
-11.7596372464
-11.5737578506
-11.4195088751
-11.2920773017
-11.1872174493
-11.1012508469
-11.0310256672
-10.9738618342
-10.9274936055
-10.8900147736
-10.8598285512
-10.8356027797
-10.8162304479
-10.8007952147
-10.7885415079
-10.7788487366
-10.7712091523
-10.765208922
-10.7605119995
-10.7568464225
-10.7539926968
-10.7517739777
-10.7500478123
-10.7486992878
-10.7476355289
-10.7467817911
-10.7460788647
-10.7454813274
-10.7449167874
-10.7443070359
-10.7443465509
-10.7443259495
-14.8800059712
-14.6415835061
-14.2423661033
-13.7780669274
-13.3171292432
-12.8951504894
-12.5254167877
-12.2092941039
-11.9428078765
-11.7201077518
-11.5350832257
-11.382034708
-11.2559024778
-11.1523027424
-11.0674864304
-10.9982718459
-10.9419727223
-10.8963301433
-10.8594512043
-10.8297549822
-10.8059254804
-10.7868709139
-10.7716886292
-10.7596349794
-10.7500995313
-10.7425830424
-10.7366787045
-10.7320562076
-10.7284482234
-10.7256389594
-10.723454483
-10.7217545777
-10.7204259782
-10.7193769393
-10.7185334295
-10.7178367481
-10.7172426911
-10.716683382
-10.7160848859
-10.7160998735
-10.7160717371
-14.9742033076
-14.7122198275
-14.2795178809
-13.7848293488
-13.3018018522
-12.8658701372
-12.4883460459
-12.1685477265
-11.9009150021
-11.6785113885
-11.4945307845
-11.3428487227
-11.2181575133
-11.1159369759
-11.0323701346
-10.9642482506
-10.9088814965
-10.86402011
-10.8277865025
-10.7986173318
-10.7752142163
-10.7565018194
-10.7415921984
-10.7297544846
-10.7203891116
-10.7130059294
-10.7072056397
-10.7026640678
-10.6991188484
-10.6963581602
-10.6942112024
-10.6925401713
-10.6912335829
-10.6902009128
-10.6893688824
-10.6886792911
-10.688089112
-10.6875353289
-10.6869487776
-10.6869347297
-10.6868964518
-15.0786886612
-14.7894833617
-14.3189273167
-13.7908758755
-13.2843072834
-12.8339335731
-12.4486085233
-12.1253190679
-11.8567803477
-11.6349101233
-11.4521850572
-11.3020506425
-11.1789525188
-11.0782375363
-10.996024602
-10.9290814524
-10.8747177651
-10.8306955364
-10.7951546802
-10.7665512638
-10.743606046
-10.7252614094
-10.7106451794
-10.6990401444
-10.6898583337
-10.682619293
-10.6769317333
-10.6724780279
-10.6690011149
-10.6662934251
-10.6641875209
-10.662548197
-10.6612658945
-10.6602514064
-10.6594322487
-10.6587507023
-10.6581648541
-10.6576168487
-10.6570427214
-10.6569947966
-10.6569434133
-15.194603837
-14.8738543842
-14.3604713444
-13.7958756526
-13.2643486255
-12.799147993
-12.4061109355
-12.0795902908
-11.8104383646
-11.5893734082
-11.4081387548
-11.259748773
-11.1384064679
-11.0393309039
-10.9585817739
-10.892907509
-10.8396207978
-10.7964982741
-10.761699715
-10.733702537
-10.7112482376
-10.6932982386
-10.6789972268
-10.6676425522
-10.6586585898
-10.6515752028
-10.6460096262
-10.641651208
-10.6382485435
-10.6355986095
-10.6335375735
-10.6319330268
-10.6306774892
-10.6296831756
-10.6288784399
-10.6282060174
-10.6276250195
-10.6270830047
-10.6265215738
-10.6264345799
-10.6263667739
-15.3232656754
-14.9658414829
-14.4039578229
-13.799430305
-13.241591228
-12.7613057509
-12.3607578416
-12.0313474932
-11.7619301361
-11.5419784892
-11.3624929108
-11.2160600316
-11.0966471528
-10.9993525583
-10.9201827645
-10.8558718193
-10.8037393649
-10.7615798245
-10.7275753714
-10.7002268211
-10.6782980804
-10.6607709807
-10.6468081979
-10.6357225767
-10.6269516097
-10.6200361181
-10.6146023927
-10.6103471979
-10.6070251545
-10.6044380921
-10.6024260393
-10.6008595938
-10.5996335192
-10.5986615665
-10.5978729734
-10.5972108927
-10.5966353433
-10.5960994999
-10.5955508311
-10.5954192131
-10.5953313171
-15.4661981519
-15.0659770244
-14.4491055347
-13.8010629066
-13.2156599371
-12.7201847141
-12.3124526268
-11.9805815167
-11.7113038654
-11.4928106253
-11.3153569103
-11.1711098482
-11.0538110008
-10.9584467401
-10.8809775838
-10.8181288183
-10.767231413
-10.7261010004
-10.6929448514
-10.6662893384
-10.6449225197
-10.6278480557
-10.6142477763
-10.603450981
-10.5949090758
-10.5881745
-10.5828831495
-10.5787396638
-10.5755050724
-10.572986379
-10.5710277431
-10.5695029923
-10.5683093125
-10.5673621147
-10.5665915707
-10.5659412048
-10.5653717947
-10.56484228
-10.5643062317
-10.5641240623
-10.5640120624
-15.6251717701
-15.1748097552
-14.4955191971
-13.8002057887
-13.186136742
-12.6755490434
-12.261098686
-11.9272887914
-11.6586153068
-11.4419632019
-11.2668483876
-11.1250319211
-11.0100427351
-10.916766047
-10.841124689
-10.7798414963
-10.7302635596
-10.6902314011
-10.6579802538
-10.6320643101
-10.6112975922
-10.5947070577
-10.5814948908
-10.5710078358
-10.5627120304
-10.5561722136
-10.5510344546
-10.5470117437
-10.5438719182
-10.5414274931
-10.5395270431
-10.5380478645
-10.5368897571
-10.5359699286
-10.5352195407
-10.5345824339
-10.5340199623
-10.5334969209
-10.5329731448
-10.5327341152
-10.5325936515
-15.802252118
-15.2928933668
-14.5426582705
-13.7961873011
-13.1525590943
-12.6271505024
-12.2066008317
-11.8714722091
-11.603928125
-11.389537724
-11.2170929782
-11.0779678117
-10.9654948656
-10.874470852
-10.8007903503
-10.7411807249
-10.6930103884
-10.6541486827
-10.6228618244
-10.5977341899
-10.5776076452
-10.5615339609
-10.5487369126
-10.5385817065
-10.5305500561
-10.5242197025
-10.5192474761
-10.5153552113
-10.51231797
-10.5099541313
-10.5081169855
-10.5066875518
-10.5055684513
-10.5046788385
-10.503950928
-10.5033288129
-10.5027742032
-10.5022577805
-10.5017457263
-10.5014431339
-10.5012694927
-15.9998599849
-15.4207694139
-14.5897980519
-13.788217778
-13.1144192393
-12.5747304055
-12.1488669435
-11.8131420201
-11.5473141678
-11.3356436736
-11.1662239121
-11.0300663668
-10.9203269959
-10.8317285295
-10.7601478174
-10.7023243775
-10.6556535326
-10.6180376115
-10.5877769843
-10.5634886709
-10.5440443255
-10.5285220939
-10.5161686147
-10.5063686025
-10.4986202149
-10.4925149197
-10.487720916
-10.4839693947
-10.4810430763
-10.4787665738
-10.4769982103
-10.475622998
-10.4745466041
-10.4736902945
-10.4729874098
-10.4723822245
-10.4718365422
-10.4713269004
-10.4708258278
-10.4704525564
-10.4702406493
-16.220846128
-15.5589423713
-14.6359811856
-13.7753751692
-13.0711649866
-12.5180223186
-12.0878098757
-11.7523167408
-11.4888536409
-11.2803982217
-11.1143814382
-10.981482959
-10.8747049392
-10.7887124824
-10.7193762785
-10.6634562353
-10.6183805381
-10.5820888913
-10.5529191263
-10.5295234561
-10.510805328
-10.4958708686
-10.4839908858
-10.474570677
-10.4671257366
-10.4612620054
-10.4566596801
-10.453059839
-10.4502533129
-10.4480713363
-10.4463775986
-10.4450613936
-10.4440316758
-10.4432120057
-10.442536934
-10.4419508387
-10.441415309
-10.4409126465
-10.4404216486
-10.4399701367
-10.4397144584
-16.4685846779
-15.7078437821
-14.679957285
-13.7565910945
-13.0222024485
-12.4567556209
-12.0233496296
-11.6890240631
-11.4286351712
-11.223925785
-11.0617120752
-10.9323785411
-10.8287996394
-10.7456009657
-10.6786596102
-10.6247646771
-10.5813835034
-10.5464977612
-10.5184861781
-10.4960387909
-10.4780929014
-10.4637842645
-10.4524091948
-10.4433946748
-10.4362744522
-10.43066971
-10.4262732905
-10.42283671
-10.42015938
-10.4180795606
-10.4164666593
-10.4152145573
-10.4142357572
-10.4134563155
-10.4128120922
-10.4122474866
-10.4117235124
-10.4112280853
-10.4107461292
-10.4102083207
-10.4099028705
-16.747090356
-15.8677813131
-14.7201078298
-13.7306385142
-12.9669013836
-12.3906600186
-11.9554157873
-11.6233017497
-11.3667557479
-11.1663574228
-11.0083676851
-10.8829185158
-10.7827858996
-10.7025757108
-10.6381849194
-10.5864411551
-10.5448574999
-10.5114623689
-10.4846789339
-10.4632377603
-10.4461121164
-10.4324690695
-10.4216318098
-10.4130501328
-10.4062769791
-10.4009495643
-10.3967740448
-10.3935129447
-10.3909747436
-10.38900515
-10.3874796582
-10.386297061
-10.3853736895
-10.3846383186
-10.384028235
-10.3834877745
-10.3829769546
-10.3824891004
-10.3820150924
-10.3813823632
-10.3810205166
-17.061166236
-16.0388669604
-14.7543528672
-13.6961228257
-12.9046038902
-12.3194710674
-11.8839501938
-11.5551985007
-11.303320534
-11.1078300736
-10.9545043777
-10.8332714268
-10.7368409263
-10.6598203598
-10.59814089
-10.5486784681
-10.5089987838
-10.4771819301
-10.4516991694
-10.4313243646
-10.4150689063
-10.402132893
-10.3918677862
-10.383747346
-10.3773446685
-10.3723138123
-10.3683749365
-10.3653021599
-10.3629135366
-10.3610626625
-10.3596315049
-10.3585241111
-10.3576609411
-10.3569737341
-10.356401342
-10.3558879543
-10.3553920998
-10.3549122621
-10.3544451456
-10.3537082008
-10.3532825052
-17.4165908356
-16.2209164887
-14.7800352867
-13.6514790638
-12.83463729
-12.2429366992
-11.8089098555
-11.484774772
-11.2384425408
-11.048485637
-10.9002812523
-10.7836074861
-10.6911427057
-10.6175187254
-10.5587159503
-10.5116688522
-10.4740028205
-10.4438546952
-10.4197475586
-10.4005013926
-10.3851679044
-10.3729819703
-10.3633247433
-10.355695122
-10.3496873402
-10.3449731294
-10.3412873577
-10.3384163443
-10.33618824
-10.3344649837
-10.3331354193
-10.3321092088
-10.3313112634
-10.3306765563
-10.33014567
-10.329662571
-10.3291837218
-10.328712472
-10.3282513704
-10.3274001079
-10.326901972
-17.820356056
-16.4133092151
-14.7937775558
-13.5949791074
-12.7563320941
-12.1608246579
-11.7302700103
-11.4121035259
-11.1722421646
-10.9884699095
-10.8458589979
-10.7340969584
-10.6458682345
-10.5758529052
-10.5200962894
-10.4756019147
-10.4400621479
-10.4116757524
-10.3890214236
-10.3709681265
-10.356610108
-10.3452187927
-10.3362064655
-10.3290983558
-10.3235108356
-10.319134157
-10.3157186202
-10.3130633661
-10.3110071803
-10.3094208159
-10.3082004123
-10.3072616253
-10.3065341596
-10.3059565194
-10.3054712139
-10.3050219238
-10.3045623627
-10.304100417
-10.3036448354
-10.3026681724
-10.3020874027
-18.2809711012
-16.6147931412
-14.7913047859
-13.5247544912
-12.6690459197
-12.072930616
-11.6480273056
-11.3372708926
-11.104846582
-10.9279313928
-10.7913983723
-10.6849084297
-10.6011916381
-10.5350012787
-10.4824637566
-10.4406624493
-10.4073641183
-10.3808347049
-10.359712357
-10.342917915
-10.32959041
-10.3190396025
-10.3107103655
-10.3041554672
-10.2990144335
-10.2949968992
-10.2918693353
-10.2894443398
-10.2875718852
-10.2861320242
-10.2850286253
-10.2841837337
-10.2835322113
-10.2830164179
-10.2825810233
-10.2821693839
-10.2817316495
-10.2812798729
-10.2808299744
-10.2797156432
-10.2790397675
-18.8088523437
-16.8232147783
-14.7672268702
-13.4388427867
-12.5721940511
-11.9790865572
-11.5622030131
-11.2603767178
-11.0363890111
-10.867019994
-10.737058593
-10.6362069963
-10.5572822114
-10.4951364323
-10.445993686
-10.4070281751
-10.3760885633
-10.3515132714
-10.332003764
-10.316535666
-10.3042950483
-10.2946318053
-10.2870248653
-10.2810557541
-10.276388179
-10.272752033
-10.2699307075
-10.2677509063
-10.2660743524
-10.2647908957
-10.2638125807
-10.2630682533
-10.2624983165
-10.2620493397
-10.2616684309
-10.2612986241
-10.2608855229
-10.2604449127
-10.2600018885
-10.258736212
-10.2579495073
-19.4168255478
-17.0351451837
-14.7147712316
-13.3352687706
-12.465286919
-11.8791687696
-11.4728462062
-11.1815349738
-10.9670078389
-10.805885648
-10.6829956741
-10.5881524145
-10.5143024303
-10.4564230555
-10.4108526968
-10.3748674523
-10.3464054352
-10.3238828614
-10.3060683821
-10.2919953162
-10.2808990318
-10.2721713588
-10.2653267517
-10.2599767206
-10.2558101894
-10.2525781931
-10.2500818038
-10.2481624881
-10.2466942935
-10.2455773741
-10.2447324088
-10.2440954693
-10.243612903
-10.2432358732
-10.2429142546
-10.2425908234
-10.2422054434
-10.2417770782
-10.241343631
-10.2399113077
-10.2389934159
-20.120775511
-17.2453629097
-14.6254565264
-13.2121760868
-12.3479739547
-11.7731044886
-11.3800368506
-11.1008740088
-10.8968456267
-10.7446768925
-10.6293607522
-10.5408972575
-10.4724059804
-10.4190158647
-10.377196524
-10.3443370322
-10.3184724847
-10.2981021905
-10.2820658393
-10.2694573406
-10.2595636082
-10.2518202028
-10.2457785763
-10.2410814497
-10.2374440034
-10.2346393031
-10.2324868675
-10.2308435902
-10.2295964236
-10.2286563401
-10.2279531202
-10.2274304984
-10.2270411883
-10.2267413608
-10.2264840453
-10.22621192
-10.225857647
-10.2254425855
-10.2250235442
-10.2234074944
-10.2223314695
-20.9404898063
-17.4461395814
-14.4886966311
-13.0680312529
-12.2200918168
-11.6608758703
-11.2838888076
-11.0185366043
-10.8260479957
-10.6835394331
-10.5762984428
-10.494585128
-10.4317358581
-10.3830576074
-10.3451679385
-10.3155799013
-10.2924330389
-10.2743149983
-10.2601403203
-10.2490663729
-10.2404338429
-10.2337238049
-10.2285261698
-10.224516093
-10.2214360493
-10.219082025
-10.2172927536
-10.2159412226
-10.214927873
-10.2141750144
-10.2136220014
-10.2132206788
-10.2129305631
-10.2127132762
-10.2125254562
-10.2123099873
-10.2119905323
-10.2115896379
-10.2111927144
-10.2093740754
-10.2081036535
-21.9007589593
-17.6262530607
-14.2913236608
-12.9019302636
-12.0817125531
-11.542519591
-11.1845528628
-10.9346798066
-10.7547624013
-10.6226147354
-10.5239452729
-10.4493489756
-10.3924225966
-10.3486772068
-10.314894817
-10.2887232851
-10.2684139439
-10.2526479375
-10.2404184083
-10.2309490052
-10.2236363841
-10.2180088932
-10.2136963488
-10.2104075536
-10.2079133086
-10.2060334068
-10.2046265622
-10.2035825223
-10.2028158003
-10.2022605628
-10.2018662138
-10.2015931622
-10.2014081784
-10.2012788053
-10.2011658161
-10.2010128161
-10.2007322608
-10.200345926
-10.1999826109
-10.1979410215
-10.1964268308
-23.0328165517
-17.7696243374
-14.0170190751
-12.7140494921
-11.9331833214
-11.418120014
-11.0822200692
-10.8494744748
-10.6831367933
-10.5620386853
-10.4724282319
-10.4053095661
-10.3545826678
-10.3159880987
-10.2864884191
-10.2638768689
-10.2465237367
-10.2332087016
-10.2230071722
-10.2152118409
-10.2092774842
-10.2047814515
-10.2013948882
-10.19886144
-10.1969812536
-10.1955988058
-10.1945935505
-10.1938726561
-10.1933652876
-10.1930179847
-10.1927906764
-10.1926527927
-10.1925788195
-10.1925427139
-10.1925099852
-10.1924257841
-10.1921886596
-10.1918163969
-10.191502962
-10.189217352
-10.1873916926
-24.3762313814
-17.8534342721
-13.6456438475
-12.5062981454
-11.7751431004
-11.2877936734
-10.9771259844
-10.7631044545
-10.6113181558
-10.5019403495
-10.4218634743
-10.3625741429
-10.3183171049
-10.2850868113
-10.2600419241
-10.2411312959
-10.2268511053
-10.2160844507
-10.2079925637
-10.2019398653
-10.197441348
-10.1941250487
-10.1917048335
-10.1899603639
-10.1887221335
-10.1878601655
-10.1872754016
-10.1868930824
-10.186657596
-10.1865283651
-10.1864763135
-10.1864803508
-10.1865231467
-10.1865855831
-10.1866385772
-10.1866300928
-10.1864415118
-10.186081379
-10.1858399044
-10.1832901086
-10.1810598264
-25.9814026882
-17.8455250837
-13.1524705147
-12.2832563054
-11.6084983001
-11.1516699435
-10.869564689
-10.6757740558
-10.5394607066
-10.4424516007
-10.3723668167
-10.3212477636
-10.2837236165
-10.2560657846
-10.2356438912
-10.220572206
-10.20947945
-10.2013568395
-10.1954548583
-10.1912122509
-10.1882062566
-10.186117238
-10.1847031388
-10.1837807819
-10.1832119886
-10.1828931753
-10.1827475064
-10.1827189349
-10.1827676341
-10.1828664105
-10.1829976476
-10.1831501911
-10.183315369
-10.1834815101
-10.1836256622
-10.1837005214
-10.1835664293
-10.1832144662
-10.1830721128
-10.1802390135
-10.1775084621
)
;

boundaryField
{
    inout
    {
        type            empty;
    }
    top
    {
        type            calculated;
        value           nonuniform List<scalar> 
41
(
-26.856493022
-17.8139431989
-12.8720311832
-12.1686867738
-11.5231532271
-11.0821751359
-10.8152083803
-10.6318960796
-10.5035425687
-10.4128769208
-10.3479006628
-10.3009505777
-10.2668576932
-10.2420374772
-10.2239686539
-10.210850594
-10.2013799141
-10.1946030399
-10.1898159208
-10.1864951005
-10.1842494406
-10.1827858704
-10.1818847068
-10.1813816367
-10.181154388
-10.1811127835
-10.181191281
-10.1813433489
-10.181537192
-10.1817524335
-10.181977302
-10.1822057253
-10.1824334801
-10.18265275
-10.1828438336
-10.1829623698
-10.1828571339
-10.1825079847
-10.1824224629
-10.1794429487
-10.176441423
)
;
    }
    bottom
    {
        type            calculated;
        value           nonuniform List<scalar> 
41
(
-14.237066026
-14.1350865595
-13.9459091564
-13.6945546297
-13.4075999012
-13.1093137609
-12.818111843
-12.5461500004
-12.3002417333
-12.0831998201
-11.8951364866
-11.7345106481
-11.5988871656
-11.4854473548
-11.3913108287
-11.3137247512
-11.2501647257
-11.1983792783
-11.1563998298
-11.1225306223
-11.095327888
-11.0735740662
-11.0562506014
-11.0425113809
-11.0316579452
-11.0231170211
-11.0164205739
-11.0111883613
-11.0071128557
-11.0039463397
-11.0014899609
-10.9995845353
-10.9981029109
-10.9969437134
-10.9960261974
-10.9952851596
-10.9946627595
-10.9940993547
-10.9936114745
-10.9935307305
-10.9934216638
)
;
    }
    frontback
    {
        type            empty;
    }
}


// ************************************************************************* //
