/*--------------------------------*- C++ -*----------------------------------*\
| =========                 |                                                 |
| \\      /  F ield         | OpenFOAM: The Open Source CFD Toolbox           |
|  \\    /   O peration     | Version:  2112                                  |
|   \\  /    A nd           | Website:  www.openfoam.com                      |
|    \\/     M anipulation  |                                                 |
\*---------------------------------------------------------------------------*/
FoamFile
{
    version     2.0;
    format      ascii;
    arch        "LSB;label=32;scalar=64";
    class       volScalarField;
    location    "0.8";
    object      gradTx;
}
// * * * * * * * * * * * * * * * * * * * * * * * * * * * * * * * * * * * * * //

dimensions      [0 -1 0 1 0 0 0];

internalField   nonuniform List<scalar> 
1681
(
2622.58139237
0.0145578434802
0.0220265964902
0.0269154627605
0.0292620434412
0.0294744029089
0.0281581880247
0.0258935054832
0.0231475090122
0.0202552623342
0.0174344586002
0.0148124660517
0.0124531646664
0.010378816845
0.00858613017944
0.0070573051487
0.00576727364133
0.00468824479924
0.0037924328019
0.00305359708933
0.00244782780676
0.00195386432713
0.00155313426222
0.00122963281126
0.000969717989249
0.000761868563587
0.000596432992067
0.000465385913479
0.000362101080721
0.000281144737337
0.000218090217223
0.000169352503466
0.000132041097014
0.000103835670854
8.29276892741e-05
6.81718961131e-05
5.92902455064e-05
5.25642483983e-05
2.8431209679e-05
9.49053389517e-06
-2622.90065243
2619.74386961
0.0437536215012
0.0661878661119
0.0808554453107
0.0878782199471
0.0884919923813
0.0845205954975
0.0777079683143
0.069456481028
0.0607707794353
0.0523029051365
0.0444339245975
0.0373546317353
0.0311311938768
0.0257533096298
0.0211673046828
0.0172978035288
0.0140613325541
0.0113744786209
0.00915849275743
0.00734163523085
0.00586012388368
0.0046582465638
0.00368799635787
0.00290845562221
0.00228506879231
0.00178888874288
0.00139584602531
0.00108606762294
0.000843257138522
0.000654138692634
0.000507960689775
0.000396054299713
0.000311458847852
0.000248743600001
0.000204485541119
0.000178107747236
0.000158912671063
8.50129830848e-05
2.58980619885e-05
-2620.70215436
2616.90542102
0.073191523918
0.110674164326
0.135122944192
0.146770929941
0.147715858508
0.141020865202
0.129604523746
0.115807076906
0.101301080694
0.0871697917413
0.0740448523559
0.0622414307935
0.0518677408157
0.0429052012993
0.0352634376078
0.0288162546055
0.0234241937758
0.018948048289
0.0152564793086
0.0122298870268
0.0097619670943
0.00775988276906
0.00614364760616
0.00484509324088
0.00380665426545
0.00298011049046
0.00232536830436
0.00180932511763
0.00140483653248
0.00108978981509
0.000846277190687
0.000659859604249
0.000518937917798
0.000414446034263
0.000340708318207
0.000297504043637
0.000268448199969
0.000140946156421
3.58462444017e-05
-2618.50424699
2614.06541775
0.103038522098
0.15570499945
0.189937873722
0.20612522077
0.207283159485
0.197750043519
0.181636931593
0.162226163209
0.141855293462
0.122033505309
0.103637787009
0.0871034433365
0.0725776405333
0.0600314056825
0.0493362933845
0.0403144394602
0.0327698999834
0.026507399263
0.0213428742555
0.0171088156885
0.0136563965418
0.0108556811977
0.00859474159083
0.00677820044643
0.00532552346874
0.00416925507261
0.00325331079599
0.00253138724263
0.00196551648609
0.00152476963374
0.00118410011672
0.00092331255083
0.000726175633803
0.000579976125323
0.000476796660072
0.000417431081976
0.000381369660523
0.000196274632544
4.00557821365e-05
-2616.30731978
2611.22321892
0.13346710834
0.20150502363
0.245523352158
0.266127452987
0.267330857284
0.254798243747
0.233857846868
0.208739614769
0.182441763936
0.156891861757
0.133204867497
0.111930279888
0.0932498943042
0.077121401924
0.0633763798141
0.0517841147914
0.0420914834558
0.0340467605342
0.0274129736974
0.0219746370155
0.0175404013801
0.0139432690861
0.0110394240543
0.00870633894998
0.00684056815532
0.00535547356721
0.0041790266239
0.00325176346145
0.00252492696438
0.00195880110049
0.00152122491523
0.00118626647487
0.000933073727402
0.000745278269474
0.000612713278727
0.000537754634945
0.000497381776602
0.000251173557445
3.98690058367e-05
-2614.11175961
2608.37816741
0.164657030171
0.248306300758
0.302107211108
0.326965806267
0.327995626031
0.312254278173
0.286318394713
0.255371942585
0.223067772086
0.191741904564
0.162737699303
0.136711193591
0.113873268288
0.0941645157292
0.0773741043832
0.063216970932
0.0513819315249
0.0415603295907
0.0334620506952
0.0268235491616
0.0214109566416
0.0170202619717
0.0134758307884
0.0106280618725
0.00835067260402
0.00653791053647
0.00510186322564
0.00396995829129
0.0030826936244
0.0023916034263
0.00185744379322
0.00144857194808
0.0011395317603
0.000910296278804
0.000748425548112
0.000658332375145
0.000615998953904
0.000305809716512
3.64569984533e-05
-2611.91795001
2605.52958495
0.196797463287
0.296350584926
0.359923444004
0.388830710406
0.389413668456
0.3702052111
0.339067683958
0.302145873544
0.263739206783
0.2265796687
0.192227188633
0.161434965544
0.134436214354
0.111149864131
0.091319734974
0.0746046031101
0.0606341649087
0.0490422555673
0.0394853417722
0.0316517215695
0.0252650140264
0.0200842559226
0.0159020810552
0.0125419081554
0.00985470887203
0.00771569999771
0.00602115895864
0.00468546843626
0.0036384354148
0.00282289006021
0.00219254400973
0.00171007532947
0.00134544571973
0.0010749711497
0.00088390249657
0.000779032586236
0.00073666854299
0.000360294407172
3.0717878247e-05
-2609.72626984
2602.67676681
0.230089486826
0.345891720818
0.419213642157
0.451915221297
0.451720463948
0.428735860789
0.392152290766
0.349081914585
0.304460233027
0.261399939944
0.221663373119
0.186089786891
0.154926787653
0.128066297028
0.105203357448
0.085938479819
0.0698410134025
0.0564866200229
0.045478031362
0.0364552821509
0.0290994911863
0.0231328185213
0.0183162699629
0.0144463961076
0.0113515313471
0.00888796084272
0.00693623924661
0.00539777955949
0.00419176186271
0.00325236640985
0.00252630598071
0.00197061716379
0.00155070660662
0.00123923939286
0.00101911191973
0.000899736738857
0.000858837748299
0.000414686384128
2.33206471371e-05
-2607.53709183
2599.81897614
0.264748870801
0.397198220604
0.480228433363
0.516415331899
0.515050440952
0.487928249048
0.445615715803
0.396197907373
0.345232958162
0.296196016366
0.251035255237
0.210663143162
0.17533256576
0.144902339674
0.11901483372
0.0972099113547
0.0789951915564
0.0638874176197
0.0514352360933
0.041230304282
0.0329112608353
0.0261634796804
0.0207164606977
0.0163400168419
0.0128399712029
0.0100537921556
0.00784641264999
0.00610636299518
0.00474227032452
0.00367972753857
0.00285850131546
0.00223003054388
0.00175519906836
0.00140303175064
0.00115401828071
0.00102033744823
0.000981988163791
0.000469012674981
1.47761912888e-05
-2605.35078117
2596.95543809
0.301009222262
0.450556060314
0.543228927515
0.582530199019
0.57953655812
0.547860990313
0.499497812289
0.443508573718
0.386057098445
0.330959473534
0.280330639817
0.235141701964
0.195640570199
0.161646136733
0.132743760779
0.108410018867
0.0880892745896
0.071238536855
0.0573519890362
0.0459727937051
0.0366971397501
0.0291737223366
0.0231006766428
0.0182212275887
0.0143188307471
0.0112122684657
0.00875096687825
0.00681067239672
0.00528954317033
0.00410465579346
0.00318889083283
0.00248813942433
0.00195880001283
0.0015662721255
0.0012885813878
0.00114073581421
0.00110565078525
0.000523291050445
5.50062355395e-06
-2603.16769403
2594.08533344
0.339125559475
0.506271737187
0.60848816632
0.650462261514
0.645309775061
0.608608610057
0.553834180798
0.491025050623
0.426929645943
0.365679933604
0.309535975696
0.259511203925
0.215837190123
0.178285397542
0.146379430256
0.119529703528
0.0971156741489
0.078533740495
0.0632232235714
0.0506786750421
0.0404538773743
0.032160972794
0.0254668931678
0.0200884447393
0.0157868775421
0.0123624347809
0.00964916461738
0.00751014024844
0.00583314486328
0.00452681834122
0.00351722246301
0.00274475684591
0.00216137717528
0.00172887658908
0.00142275557898
0.00126083932467
0.0012294100985
0.000577548359635
-4.13593407098e-06
-2600.98817604
2591.20779186
0.379378404132
0.564675631618
0.676292567248
0.720417220737
0.712498391481
0.670240782019
0.608655526921
0.538754414034
0.467844535729
0.400344838357
0.338636201419
0.283756356572
0.235908107726
0.194807342131
0.159910788035
0.130559615313
0.106066613431
0.0857666452617
0.0690437565041
0.0553437775695
0.0441781437593
0.0351225904583
0.0278130288952
0.0219400364321
0.017242838125
0.0135033013046
0.0105402390979
0.00820417414651
0.00637261883579
0.00494586454777
0.00384322901939
0.00299968303736
0.0023627875754
0.00189075235105
0.00155648916504
0.00138056048646
0.00135290256222
0.000631833823273
-1.37748361234e-05
-2598.81256072
2588.32188454
0.422078503587
0.626125720823
0.746943344146
0.792603848876
0.781227231875
0.732821474252
0.663986978868
0.58669919114
0.508792313902
0.434939226609
0.367614595118
0.307860731079
0.255838225108
0.211198647613
0.173326393546
0.141490121006
0.114934101332
0.0929307004653
0.0748082701202
0.059963820005
0.047866516595
0.0380558567703
0.0301369362807
0.0237743145405
0.0186853912363
0.0146338377287
0.0114233893103
0.00889215280117
0.00690748414784
0.00536142315193
0.00416662579772
0.00325270336535
0.00256287581176
0.00205179663142
0.00168972394117
0.0014998159716
0.00147581263708
0.000686228154722
-2.30446389032e-05
-2596.64116787
2585.42661621
0.467572320004
0.691011695128
0.820757877575
0.867233584538
0.851616651497
0.796407994719
0.719847363273
0.634856862009
0.5497598076
0.469445516811
0.396452629033
0.33180666201
0.27561159259
0.22744539485
0.186614378502
0.152311271232
0.123709905381
0.100019165363
0.0805112930011
0.0645343941416
0.0515154672136
0.0409579632309
0.0324363913854
0.0255895259904
0.0201131604788
0.0157529670615
0.0122977748281
0.00957342171479
0.0074372318721
0.00577309922848
0.0044871079862
0.00350358609716
0.00276147221259
0.00221189535461
0.00182239461603
0.00161852609259
0.00159786805882
0.000740849739262
-3.1544272562e-05
-2594.47430177
2582.52091636
0.51624845293
0.759759531511
0.898070996268
0.944519867467
0.92378133789
0.861049928355
0.776248438919
0.683219352501
0.590729798849
0.503843296184
0.425129829427
0.355575150471
0.295211338624
0.243533015375
0.199762405103
0.163012766441
0.132385523404
0.107025085175
0.0861471795379
0.0690509472641
0.0551213454849
0.0438259984651
0.0347090828298
0.0273838433727
0.0215247063774
0.0168595589542
0.0131625102427
0.0102472885289
0.00796132121103
0.00618047092185
0.00480434788352
0.00375208000118
0.00295839077715
0.00237092163827
0.00195442808509
0.00173661439344
0.00171883526128
0.000795858944397
-3.88310535695e-05
-2592.31224942
2579.6036296
0.568545197941
0.832836581939
0.97923611618
1.02467715555
0.997828880996
0.926787958992
0.833194089792
0.731772521448
0.631680704834
0.53810911806
0.453623642974
0.379145771311
0.314619601693
0.259446238848
0.212757623794
0.173583921927
0.140952153963
0.113941265792
0.0917100881552
0.0735087633763
0.058680363649
0.0466569343303
0.0369525999307
0.0291553548644
0.0229185178726
0.0179524225569
0.0140166591799
0.0109130180594
0.00847917535322
0.00658308597359
0.00511799192389
0.00399791175385
0.00315342693795
0.00252873406243
0.00208574248481
0.00185400722784
0.00183851538385
0.000851461315408
-4.44119882169e-05
-2590.15527856
2576.67350495
0.624959488734
0.910757235643
1.06462616437
1.10791955707
1.07385808402
0.99365257151
0.890679480681
0.780495646362
0.672586267804
0.572216309595
0.481909310945
0.40249658518
0.333817464713
0.275169041386
0.225586630872
0.184013632092
0.149400665731
0.120760247312
0.0971939583778
0.0779029433274
0.0621885791517
0.0494476111709
0.0391644200902
0.0309020535134
0.0242930032773
0.0190302989348
0.014859227983
0.0115698270351
0.00899017710308
0.00698045803879
0.00542765754518
0.00424078319257
0.00334635514513
0.00268517469915
0.00221624596948
0.00197063324005
0.00195674101759
0.000907910136918
-4.77371267555e-05
-2588.0036357
2573.72918389
0.686057525575
0.994089213864
1.15463419041
1.19445899965
1.15195698692
1.0616626322
0.948690180754
0.829360913168
0.713415258544
0.606134792317
0.509959752738
0.425604056469
0.352784892656
0.29068459527
0.238235426335
0.194290334278
0.157721566094
0.127474276649
0.102592486932
0.0822283840281
0.0656418766485
0.0521947223246
0.0413418955508
0.0326218259855
0.0256464807828
0.0200918531227
0.0156891590905
0.0122168786025
0.009493664312
0.00737206286939
0.00573292990469
0.00448036843334
0.00353692627128
0.0028400669124
0.00234583521706
0.00208642267465
0.00207337370019
0.00096550861863
-4.81947084585e-05
-2585.85754406
2570.76918706
0.752487462307
1.08346055137
1.24967353639
1.28450284468
1.23220057513
1.13082384861
1.00720126291
0.878332916781
0.754131197966
0.639830918349
0.537745460521
0.448442978292
0.371500674199
0.305975220697
0.250689372486
0.204401972612
0.165904969332
0.13407527953
0.107899103168
0.0864797569837
0.0690359493864
0.054894798076
0.0434822396649
0.0343124409153
0.0269771686455
0.0211356659
0.0165053242045
0.0128532766646
0.00998892518082
0.00775733437581
0.00603335851145
0.00471631087372
0.0037248648767
0.00299321293566
0.00247439364103
0.00220130647079
0.00218830206993
0.00102461183704
-4.51073753037e-05
-2583.71720138
2567.79189926
0.824994610917
1.1795673096
1.35017739614
1.37825084196
1.31464814819
1.20112711435
1.06617638951
0.927368180769
0.794692102067
0.673267325481
0.565234406964
0.470986405831
0.389942368411
0.321022340317
0.262933153954
0.214335962407
0.173940564891
0.140554832296
0.11310694417
0.0906514864953
0.0723662802339
0.0575441892977
0.0455825128999
0.0359715370198
0.0282831751762
0.0221602254347
0.017306517337
0.0134780601326
0.0104751935084
0.0081356606464
0.00632845381518
0.00494822013654
0.00390986636146
0.00314439124268
0.00260178930436
0.00231521511385
0.0023014405838
0.00108562845912
-3.77295472107e-05
-2581.58277782
2564.79555265
0.904439731195
1.28318204861
1.45659754305
1.47589130515
1.39934032715
1.27254674965
1.12556689805
0.976414705713
0.835050256058
0.706402814506
0.592391968205
0.493205599523
0.408086257547
0.335806437494
0.274950739879
0.224079155798
0.181817586302
0.146904134051
0.118208830008
0.0947377278736
0.0756281227077
0.0601390510628
0.0476396088133
0.0375966112074
0.0295624887282
0.0231639189176
0.0180914478874
0.0140901972162
0.0109516439645
0.00850638000346
0.0066176837988
0.00517566900237
0.00409159404352
0.00329335375095
0.00272787255567
0.00242807719231
0.00241272860771
0.00114902225869
-2.52457536101e-05
-2579.45441374
2561.77820762
0.991821109443
1.39516305592
1.56940193991
1.5775963739
1.4862956862
1.34503865478
1.18531090369
1.02541155729
0.875152024046
0.739192252515
0.619180864331
0.515069979668
0.425907307207
0.350307019284
0.286725349171
0.233617809385
0.189524781454
0.153113979712
0.123197239662
0.0987323461752
0.078816482393
0.0626753265846
0.0496502403007
0.0391850069024
0.0308129678905
0.0241450243933
0.0188587338778
0.014688579842
0.0114173874972
0.00886877717104
0.00690047069154
0.00539819038926
0.00426967620718
0.00343982287917
0.00285247338978
0.00253981766133
0.00252212972481
0.00121531341771
-6.76956478248e-06
-2577.33221755
2558.73773122
1.08830130169
1.51646428419
1.68907086203
1.68351621597
1.57550700444
1.41853840119
1.24533243914
1.0742885065
0.914937701126
0.771586506026
0.645561119789
0.536547094185
0.443379135209
0.364502585289
0.298239419807
0.242937554767
0.197050384998
0.159174734718
0.128064288212
0.102628895964
0.0819260992154
0.0651487318684
0.0516109264518
0.0407339029097
0.0320323321295
0.0251017029682
0.0196068955161
0.0152720183811
0.011871467001
0.00922207966389
0.00717618783001
0.0056152744593
0.00444370318791
0.00358348850211
0.0029753985806
0.00265035576643
0.00262963105254
0.00128507961761
1.86570493777e-05
-2575.21626363
2555.67177259
1.19523963287
1.64814587948
1.81609105944
1.7937720124
1.66693714826
1.49295929425
1.30554065596
1.12296573559
0.954341415062
0.80353240792
0.671490046236
0.557602601296
0.460473990608
0.378370603638
0.309474583328
0.252023372965
0.204382093762
0.165076312117
0.132801706006
0.106420602707
0.0849514310853
0.0675547415248
0.0535179803944
0.042240303107
0.0332181531539
0.0260319916357
0.0203343492937
0.015839236808
0.0123128533609
0.00956545450383
0.00744415681437
0.00582636592201
0.00461322455488
0.00372400485745
0.00309642858237
0.00275960261342
0.00273524233623
0.00135895695825
5.20642926933e-05
-2573.10659032
2552.57773492
1.31423181629
1.79138507748
1.95094735306
1.90844756504
1.76051461562
1.5681904516
1.36582911498
1.1713536244
0.993291084971
0.834972762179
0.696922250296
0.57820026901
0.477162744432
0.391887495428
0.32041164568
0.260859573803
0.211507046154
0.170808152928
0.137400820537
0.110100346451
0.087886639486
0.0698885762413
0.055367498546
0.0437010273408
0.0343678472795
0.0269337969588
0.0210394028055
0.0163888684987
0.0127404420245
0.00989800538368
0.00770364502673
0.00603086163276
0.00477774645889
0.00386098744555
0.00321531426783
0.00286745836957
0.00283899455739
0.00143764075005
9.45556990613e-05
-2571.00319808
2549.45274349
1.44715840238
1.94748709262
2.09411089468
2.02757937213
1.85612880077
1.64409495291
1.42607519731
1.21935263262
1.03170844442
0.865846390365
0.721809668756
0.598301993245
0.493414893668
0.405028629052
0.331030575712
0.269429781404
0.218411806555
0.176359210677
0.141852541847
0.113660648509
0.0907255776047
0.072145192416
0.0571553517109
0.045112703892
0.0354786691419
0.0278048898834
0.0217202505218
0.0169194528114
0.0131530502559
0.0102187704078
0.00795386364951
0.0062281085755
0.00493672922874
0.00399400997886
0.00333177353009
0.00297380909038
0.00294093771942
0.00152188627311
0.000147311006885
-2568.9060478
2546.29360904
1.5962442029
2.11789540468
2.24602311558
2.15114503952
1.95362507478
1.72050812869
1.48613967013
1.26685329371
1.06950913611
0.896088223527
0.746101633527
0.617867836467
0.509198580138
0.41776832584
0.341310502639
0.277716926989
0.225082355812
0.18171794106
0.146147352287
0.11709366185
0.0934617816547
0.0743192745199
0.0588771785048
0.0464717639088
0.0365477070665
0.0286429019481
0.0223749707397
0.0174294326699
0.0135494152303
0.0105267205504
0.00819396626686
0.00641740233254
0.00508958530641
0.00412260145297
0.00344548779804
0.0030785231811
0.00304113743157
0.0016125095549
0.000211591391027
-2566.81505944
2543.09678579
1.76413139086
2.30420053304
2.40707413449
2.27904994224
2.05279982294
1.79723606848
1.54586644427
1.31373633644
1.10660288495
0.925629442907
0.769744968571
0.636856088561
0.524480625803
0.43007987847
0.351229723795
0.285703250203
0.231504088903
0.186872297722
0.150275301523
0.120391165994
0.0960884660376
0.0764052307388
0.0605283815591
0.047774438212
0.0375718804393
0.0294453231796
0.0230015239489
0.0179171533368
0.0139281931248
0.0108207589527
0.00842304820116
0.00659798614928
0.00523567759176
0.00424624337748
0.00355609853264
0.00318144753621
0.00313966980354
0.00171038823364
0.000288749036516
-2564.73011088
2539.85832334
1.95396968147
2.50814594219
2.57757408288
2.41111213424
2.15339563856
1.87405444025
1.6050825618
1.35987294932
1.14289375533
0.954397672308
0.792684120688
0.655223351554
0.53922658598
0.441935583545
0.360765723991
0.293370310177
0.237661820876
0.191809735127
0.154226007614
0.123544567122
0.0985985229917
0.0783971924539
0.0621041270111
0.0490167568659
0.0385479394162
0.0302095019571
0.023597752842
0.0183808625564
0.014287959369
0.0110997212079
0.00864014667685
0.00676905069714
0.00537431831391
0.00436436722871
0.00366320374563
0.00328240343899
0.00323661406907
0.0018164624665
0.000380243130636
-2562.6510372
2536.57381145
2.1695278961
2.73162909281
2.75771542373
2.54704564136
2.2550969422
1.95070772226
1.66359845214
1.40512520183
1.17828049752
0.982317224301
0.814861325681
0.672924649551
0.553400821835
0.453306789624
0.369895207704
0.300699007445
0.243539802097
0.196517219429
0.157988665013
0.126544904153
0.100984527357
0.0802890180946
0.0635993477048
0.0501945519087
0.0394724672933
0.0309326471008
0.0241613841937
0.018818712267
0.0146272102055
0.0113623767526
0.00884424194381
0.00692973463597
0.00550476850031
0.00447635218879
0.00376635460728
0.00338118235729
0.00333204223368
0.00193173567976
0.000487664212138
-2560.5776303
2533.2383167
2.41533235523
2.97669476914
2.94752387826
2.68644248588
2.35752637785
2.0269089536
1.72120849377
1.44934663475
1.21265698659
1.00930940168
0.836216810957
0.689913564956
0.566966593242
0.464163961877
0.378594145225
0.307669617781
0.249121743758
0.200981248234
0.161552060233
0.129382861429
0.103238747022
0.0820743018667
0.0650087505401
0.0513034635914
0.0403418858302
0.0316118324479
0.0246900328115
0.019228762038
0.0149443657052
0.0116074314904
0.00903425943632
0.00707912609374
0.00562623814645
0.00458152318368
0.00386505216944
0.00347754188253
0.00342600492879
0.00205727472369
0.000612771194006
-2558.50963906
2529.84630999
2.69683900589
3.24551657779
3.14679502307
2.82875411428
2.46024242909
2.1023401077
1.77769191508
1.49238302883
1.24591275522
1.03529285447
0.85668903501
0.706142401689
0.579886172909
0.474476764276
0.386837833664
0.314261838836
0.254390854474
0.205187879953
0.164904595849
0.132048788604
0.105353159573
0.0837463877655
0.0663268283403
0.0523389504355
0.0411524637932
0.0322440041108
0.025181207729
0.0196089843857
0.0152377743533
0.0118335317409
0.00920907310821
0.00721626512668
0.00573788718053
0.00467914925864
0.00395874424718
0.00357120214906
0.00351851250908
0.00219420850874
0.000757543907875
-2556.44676989
2526.39158365
3.02064805526
3.54036079067
3.35501297061
2.97327337578
2.5627387946
2.17665317999
1.83281406292
1.53407335802
1.27793361991
1.06018399189
0.876214963632
0.72156237561
0.592120982261
0.484214159966
0.39460097354
0.320454850255
0.259329888603
0.209122773396
0.168034323356
0.134532728195
0.107319475533
0.0852983892525
0.0675478765154
0.0532963033571
0.0419003289168
0.0328259906128
0.0256323207938
0.01995727208
0.0155057192969
0.012039269613
0.00936750996658
0.00734014728146
0.00583882729991
0.00476844229592
0.00404682241101
0.00366184324685
0.00360951038381
0.00234372362981
0.000924257729719
-2554.38868794
2522.86715714
3.39477226895
3.86352430778
3.5712467963
3.11911888933
2.66444615191
2.24947205238
1.8863280598
1.5742509288
1.30860239716
1.08389744708
0.894730381861
0.736123831888
0.603631749198
0.493344530156
0.401857761333
0.326227387714
0.263921206732
0.212771237937
0.170928985255
0.136824451117
0.109129168473
0.0867232148097
0.0686660147448
0.054170664035
0.0425814834309
0.0333545159917
0.0260406977473
0.0202714475178
0.01574642633
0.0122231898358
0.00950835589977
0.00744972829553
0.00592812479326
0.00484855604466
0.00412861900867
0.00374910435024
0.00369884752238
0.00250705444361
0.00111558529484
-2552.3350188
2519.26517023
3.82897314997
4.21723518898
3.79401953443
3.26522462168
2.76473700221
2.32039514788
1.93797686332
1.61274470279
1.33779970353
1.10634659143
0.912170239941
0.749776488406
0.614378687341
0.501835811409
0.408581998083
0.331557830998
0.268146848461
0.216118294463
0.17357606651
0.138913500337
0.110773512134
0.0880135994925
0.0696752137626
0.0549570475864
0.0431918232184
0.0338262159489
0.0264035918113
0.0205492742045
0.0159580736367
0.0123837980858
0.00963036281299
0.00754393001067
0.00600480442146
0.00491858541962
0.00420340400265
0.00383258551483
0.00378623727619
0.00268546377624
0.00133473396253
-2550.2853508
2515.57676299
4.33518313218
4.60349959041
4.02114365882
3.41033888952
2.86293429447
2.38899881154
1.98749573326
1.64938079397
1.36540483012
1.12744409378
0.928469030625
0.762469703672
0.624321695895
0.509655650803
0.414747213657
0.336424305902
0.271988617356
0.219148746977
0.175962855305
0.140789242601
0.112243624489
0.089162142436
0.0705693272034
0.0556503695379
0.0437271605699
0.0342376570033
0.0267181997936
0.0207884703093
0.0161388032728
0.0125195708044
0.00973225706602
0.0076216475163
0.00606785446152
0.00497756599338
0.00427038125864
0.00391185339238
0.00387120999701
0.00288020853953
0.00158562832632
-2548.23923786
2511.79194254
4.9280369469
5.02387255354
4.24951604877
3.55303894133
2.95832442303
2.45484124384
2.0346151081
1.68398412603
1.39129667842
1.14710251844
0.943561194315
0.774152766971
0.633420578619
0.516771577917
0.420326805934
0.34080479933
0.275428177548
0.221847264434
0.178076512734
0.142440927909
0.113530518505
0.0901613501002
0.0713421283363
0.0562454769101
0.0441832504043
0.0345853585306
0.0269816805956
0.0209867242226
0.0162867343218
0.0126289664244
0.00981274918037
0.00768175753822
0.00611623303177
0.00502447357947
0.00432868365023
0.00398645242226
0.00395305784019
0.00309248198427
0.00187314891073
-2546.196203
2507.89943712
5.62554176722
5.4791212561
4.47486462168
3.69176996604
3.05017489631
2.51746666474
2.07906389564
1.71638022822
1.41535474071
1.16523495479
0.957381547566
0.78477520779
0.641635279812
0.523151192023
0.425294193571
0.344677286518
0.278447161081
0.224198472054
0.179904150781
0.143857756198
0.114625159106
0.0910036848174
0.0719873513138
0.0567371831294
0.0445558196935
0.0348658174833
0.0271911759263
0.0211417119538
0.0163999775896
0.0127104379268
0.0098705447261
0.00772312803638
0.00614887583595
0.00505822378192
0.00437736604115
0.00405592327042
0.00403077357412
0.00332332103577
0.00220344050553
-2544.15574231
2503.88654014
6.44992400659
5.96873711296
4.69143827031
3.82492107584
3.13775636109
2.57640920073
2.12057320041
1.74639714026
1.4374601041
1.18175567041
0.969865729579
0.794287120725
0.648926134538
0.528762362267
0.429622980554
0.348019868832
0.281027284672
0.226187050909
0.181432917559
0.145028950312
0.115518525575
0.0916816180107
0.072498736377
0.0571203062737
0.0448405996814
0.0350755354292
0.0273438329641
0.0212511161292
0.0164766516317
0.0127624465364
0.00990435626051
0.00774462892504
0.00616470549866
0.0050776714189
0.00441539470325
0.00411983043508
0.00410298781775
0.00357346288903
0.00258430492886
-2542.11732943
2499.73894894
7.42870126255
6.49023622516
4.89163177242
3.95095586165
3.22036754675
2.6311957726
2.15888055083
1.77386738612
1.45749645298
1.19658077862
0.980950660393
0.802639501274
0.655254129561
0.533573437968
0.433287130042
0.350810919983
0.283150473986
0.227797844203
0.182650088372
0.145943834066
0.116201678318
0.0921876871199
0.0728700782192
0.057389709967
0.0450333603115
0.0352110474299
0.0274368285106
0.0213126462263
0.0165148998379
0.0127834763291
0.0099129160975
0.00774514380847
0.00616264269445
0.0050816097423
0.00444163117216
0.00417780069742
0.00416791309088
0.00384313001437
0.00302569439279
-2540.0804205
2495.44060701
8.59604151336
7.03816433829
5.06553841974
4.06862197024
3.29735978428
2.68134704451
2.19373476613
1.79862996127
1.47535104039
1.20962891173
0.990575003463
0.809784587034
0.660581170702
0.537553465351
0.436261144311
0.353029237869
0.284798992987
0.229015967991
0.183543160697
0.146591913634
0.116665828494
0.0925145549704
0.0730952763755
0.0575403459647
0.0451299460522
0.0352689520487
0.0274673940757
0.0213240595805
0.0165129081322
0.0127720493953
0.00989498963786
0.00772358246438
0.006141619398
0.00506876947543
0.0044548077727
0.00422957321008
0.00422330930324
0.00413171695522
0.00354032053268
-2538.04445945
)
;

boundaryField
{
    inout
    {
        type            empty;
    }
    top
    {
        type            calculated;
        value           nonuniform List<scalar> 
41
(
2495.44060701
8.59604151336
7.03816433829
5.06553841974
4.06862197024
3.29735978428
2.68134704451
2.19373476613
1.79862996127
1.47535104039
1.20962891173
0.990575003463
0.809784587034
0.660581170702
0.537553465351
0.436261144311
0.353029237869
0.284798992987
0.229015967991
0.183543160697
0.146591913634
0.116665828494
0.0925145549704
0.0730952763755
0.0575403459647
0.0451299460522
0.0352689520487
0.0274673940757
0.0213240595805
0.0165129081322
0.0127720493953
0.00989498963786
0.00772358246438
0.006141619398
0.00506876947543
0.0044548077727
0.00422957321008
0.00422330930324
0.00413171695522
0.00354032053268
-2538.04445945
)
;
    }
    bottom
    {
        type            calculated;
        value           nonuniform List<scalar> 
41
(
2622.58139237
0.0145578434802
0.0220265964902
0.0269154627605
0.0292620434412
0.0294744029089
0.0281581880247
0.0258935054832
0.0231475090122
0.0202552623342
0.0174344586002
0.0148124660517
0.0124531646664
0.010378816845
0.00858613017944
0.0070573051487
0.00576727364133
0.00468824479924
0.0037924328019
0.00305359708933
0.00244782780676
0.00195386432713
0.00155313426222
0.00122963281126
0.000969717989249
0.000761868563587
0.000596432992067
0.000465385913479
0.000362101080721
0.000281144737337
0.000218090217223
0.000169352503466
0.000132041097014
0.000103835670854
8.29276892741e-05
6.81718961131e-05
5.92902455064e-05
5.25642483983e-05
2.8431209679e-05
9.49053389517e-06
-2622.90065243
)
;
    }
    frontback
    {
        type            empty;
    }
}


// ************************************************************************* //
