/*--------------------------------*- C++ -*----------------------------------*\
| =========                 |                                                 |
| \\      /  F ield         | OpenFOAM: The Open Source CFD Toolbox           |
|  \\    /   O peration     | Version:  2112                                  |
|   \\  /    A nd           | Website:  www.openfoam.com                      |
|    \\/     M anipulation  |                                                 |
\*---------------------------------------------------------------------------*/
FoamFile
{
    version     2.0;
    format      ascii;
    arch        "LSB;label=32;scalar=64";
    class       volScalarField;
    location    "0.8";
    object      phiE;
}
// * * * * * * * * * * * * * * * * * * * * * * * * * * * * * * * * * * * * * //

dimensions      [1 2 -3 0 0 -1 0];

internalField   nonuniform List<scalar> 
1681
(
0.993902456267
0.993902456001
0.993902456477
0.993902456175
0.993902456494
0.993902456249
0.993902456385
0.993902456212
0.993902456226
0.993902456101
0.993902456043
0.993902455898
0.993902455782
0.993902455587
0.993902455413
0.993902455185
0.993902454981
0.993902454769
0.993902454586
0.993902454433
0.993902454314
0.99390245423
0.993902454181
0.993902454144
0.993902454126
0.993902454097
0.993902454058
0.993902453999
0.993902453914
0.993902453817
0.993902453705
0.993902453593
0.993902453492
0.993902453395
0.993902453335
0.99390245325
0.993902453216
0.993902453113
0.993902453051
0.993902452901
0.993902452815
0.981707368812
0.981707367985
0.981707369436
0.981707368516
0.981707369487
0.981707368745
0.98170736916
0.98170736864
0.981707368686
0.98170736831
0.981707368138
0.981707367701
0.981707367354
0.981707366766
0.981707366243
0.981707365556
0.981707364941
0.981707364303
0.98170736375
0.981707363289
0.981707362931
0.981707362681
0.981707362534
0.981707362427
0.981707362376
0.981707362289
0.981707362176
0.981707362002
0.98170736175
0.98170736146
0.981707361123
0.981707360788
0.981707360484
0.981707360191
0.98170736001
0.981707359753
0.981707359651
0.981707359335
0.98170735915
0.981707358693
0.981707358429
0.969512281381
0.969512279924
0.969512282406
0.969512280835
0.969512282488
0.969512281241
0.969512281949
0.969512281084
0.969512281168
0.969512280542
0.96951228026
0.96951227953
0.969512278952
0.969512277963
0.969512277085
0.969512275929
0.969512274893
0.969512273821
0.969512272889
0.969512272116
0.969512271516
0.969512271099
0.969512270861
0.969512270689
0.969512270615
0.969512270483
0.969512270303
0.969512270023
0.969512269609
0.969512269129
0.969512268568
0.969512268006
0.969512267499
0.969512267002
0.9695122667
0.969512266259
0.969512266087
0.969512265549
0.969512265235
0.969512264458
0.969512264001
0.957317193963
0.957317191803
0.957317195374
0.957317193132
0.957317195499
0.957317193749
0.957317194764
0.957317193565
0.957317193693
0.957317192823
0.957317192436
0.957317191406
0.957317190594
0.957317189193
0.957317187945
0.957317186303
0.957317184826
0.957317183303
0.957317181976
0.957317180882
0.957317180038
0.957317179459
0.957317179141
0.95731717892
0.957317178841
0.957317178683
0.957317178453
0.957317178083
0.957317177517
0.957317176851
0.957317176067
0.957317175272
0.957317174556
0.957317173843
0.957317173411
0.957317172772
0.957317172519
0.95731717174
0.957317171287
0.957317170168
0.957317169501
0.945122106537
0.945122103613
0.945122108327
0.945122105409
0.945122108517
0.945122106283
0.945122107619
0.945122106103
0.945122106284
0.94512210518
0.94512210469
0.945122103357
0.945122102301
0.945122100469
0.945122098829
0.945122096675
0.945122094727
0.945122092727
0.945122090985
0.945122089556
0.945122088467
0.94512208773
0.94512208735
0.945122087103
0.945122087048
0.945122086896
0.945122086643
0.945122086204
0.945122085501
0.945122084654
0.945122083648
0.945122082612
0.945122081677
0.94512208073
0.945122080153
0.945122079293
0.945122078939
0.945122077894
0.94512207728
0.945122075794
0.9451220749
0.932927019083
0.932927015344
0.932927021247
0.932927017664
0.932927021542
0.932927018854
0.932927020526
0.932927018721
0.932927018965
0.932927017639
0.932927017051
0.932927015408
0.932927014095
0.93292701181
0.932927009743
0.932927007044
0.932927004582
0.932927002073
0.932926999886
0.932926998105
0.932926996767
0.932926995883
0.932926995465
0.932926995227
0.932926995234
0.932926995128
0.932926994888
0.93292699441
0.93292699359
0.932926992569
0.932926991341
0.932926990051
0.932926988881
0.932926987678
0.932926986931
0.932926985822
0.932926985338
0.932926983995
0.932926983189
0.932926981305
0.932926980168
0.920731931578
0.920731926985
0.920731934121
0.920731929899
0.920731934571
0.920731931477
0.9207319335
0.920731931443
0.920731931761
0.920731930231
0.920731929546
0.920731927588
0.920731925999
0.920731923232
0.920731920695
0.920731917406
0.92073191438
0.920731911318
0.92073190865
0.920731906495
0.920731904906
0.920731903886
0.920731903462
0.920731903277
0.920731903394
0.920731903389
0.920731903208
0.920731902727
0.920731901816
0.920731900629
0.920731899179
0.920731897618
0.920731896193
0.920731894704
0.920731893755
0.920731892361
0.920731891706
0.920731890024
0.920731888991
0.920731886671
0.920731885273
0.908536844001
0.908536838525
0.908536846931
0.908536842111
0.908536847605
0.908536844161
0.908536846556
0.908536844288
0.908536844697
0.908536842985
0.908536842208
0.908536839927
0.908536838038
0.908536834755
0.908536831695
0.908536827763
0.908536824109
0.908536820441
0.908536817247
0.908536814691
0.908536812847
0.908536811709
0.908536811315
0.908536811237
0.908536811525
0.908536811686
0.908536811619
0.90853681118
0.908536810211
0.908536808866
0.908536807193
0.908536805342
0.908536803636
0.908536801826
0.908536800633
0.908536798911
0.908536798035
0.908536795965
0.908536794657
0.908536791858
0.908536790182
0.896341756329
0.896341749949
0.896341759664
0.896341754296
0.896341760643
0.896341756917
0.89634175971
0.896341757282
0.896341757803
0.896341755933
0.896341755068
0.896341752458
0.89634175024
0.896341746401
0.896341742754
0.896341738114
0.896341733756
0.896341729418
0.896341725646
0.896341722656
0.896341720554
0.896341719316
0.896341718997
0.896341719091
0.896341719622
0.896341720026
0.896341720144
0.8963417198
0.896341718809
0.896341717319
0.896341715421
0.896341713257
0.896341711235
0.896341709063
0.896341707574
0.896341705472
0.896341704314
0.896341701797
0.896341700161
0.896341696835
0.896341694862
0.884146668537
0.884146661244
0.884146672302
0.88414666645
0.884146673683
0.884146669758
0.884146672977
0.884146670448
0.884146671106
0.884146669108
0.884146668162
0.884146665216
0.884146662635
0.884146658194
0.884146653886
0.884146648462
0.884146643312
0.884146638226
0.884146633815
0.884146630353
0.884146627985
0.884146626672
0.88414662648
0.884146626822
0.884146627682
0.884146628421
0.884146628803
0.884146628617
0.884146627649
0.884146626026
0.8841466239
0.884146621396
0.884146619018
0.884146616435
0.884146614588
0.884146612045
0.884146610533
0.884146607501
0.884146605473
0.884146601564
0.884146599279
0.871951580602
0.871951572394
0.871951584827
0.871951578568
0.871951586725
0.871951582691
0.871951586376
0.871951583811
0.871951584638
0.871951582546
0.871951581528
0.871951578239
0.871951575256
0.87195157016
0.871951565106
0.871951558807
0.871951552765
0.87195154684
0.871951541718
0.871951537738
0.871951535097
0.871951533736
0.871951533731
0.87195153441
0.871951535699
0.871951536878
0.87195153762
0.871951537663
0.871951536771
0.871951535032
0.871951532672
0.871951529797
0.871951527013
0.871951523964
0.871951521686
0.871951518631
0.871951516682
0.871951513054
0.871951510562
0.871951506011
0.871951503395
0.859756492501
0.859756483381
0.859756497223
0.859756490642
0.859756499767
0.859756495729
0.859756499924
0.859756497398
0.859756498433
0.859756496287
0.859756495206
0.859756491569
0.859756488141
0.859756482328
0.859756476431
0.859756469154
0.859756462103
0.859756455235
0.859756449319
0.859756444769
0.859756441844
0.859756440466
0.859756440716
0.859756441836
0.859756443667
0.859756445408
0.85975644662
0.859756446977
0.859756446219
0.859756444382
0.859756441782
0.859756438501
0.859756435254
0.859756431672
0.859756428879
0.85975642523
0.859756422749
0.859756418434
0.859756415397
0.859756410137
0.859756407174
0.847561404208
0.847561394188
0.84756140947
0.847561402666
0.847561412807
0.847561408883
0.847561413641
0.847561411237
0.847561412526
0.847561410373
0.847561409242
0.84756140525
0.847561401329
0.847561394731
0.847561387881
0.847561379508
0.847561371316
0.847561363385
0.847561356578
0.847561351397
0.847561348177
0.847561346817
0.8475613474
0.847561349075
0.847561351581
0.847561354022
0.84756135583
0.847561356595
0.847561356038
0.847561354127
0.847561351278
0.847561347551
0.847561343776
0.847561339585
0.847561336182
0.847561331843
0.847561328724
0.847561323617
0.847561319945
0.847561313904
0.84756131058
0.8353663157
0.835366304798
0.835366321549
0.835366314632
0.835366325843
0.835366322164
0.835366327547
0.835366325358
0.835366326954
0.835366324847
0.835366323683
0.83536631933
0.835366314863
0.835366307402
0.835366299477
0.835366289873
0.835366280391
0.83536627126
0.835366263455
0.835366257574
0.835366254042
0.835366252738
0.835366253741
0.835366256102
0.835366259433
0.83536626273
0.835366265276
0.835366266558
0.835366266279
0.83536626432
0.835366261211
0.835366256994
0.835366252614
0.83536624773
0.835366243608
0.835366238473
0.835366234595
0.835366228582
0.835366224172
0.835366217274
0.835366213576
0.823171226952
0.823171215191
0.82317123344
0.823171226535
0.823171238875
0.823171235585
0.823171241665
0.823171239793
0.823171241759
0.823171239756
0.823171238578
0.82317123386
0.823171228789
0.823171220378
0.823171211243
0.823171200256
0.823171189318
0.823171178832
0.823171169905
0.823171163244
0.823171159381
0.823171158178
0.823171159697
0.823171162891
0.823171167215
0.823171171542
0.823171174989
0.82317117691
0.823171176994
0.823171175017
0.823171171635
0.823171166879
0.823171161809
0.823171156137
0.823171151175
0.823171145123
0.823171140353
0.823171133304
0.823171128046
0.823171120209
0.823171116125
0.81097613794
0.810976125349
0.810976145124
0.810976138366
0.810976151899
0.810976149157
0.810976156015
0.810976154575
0.81097615698
0.810976155149
0.810976153979
0.810976148893
0.810976143154
0.810976133699
0.810976123204
0.810976110663
0.810976098084
0.810976086069
0.810976075882
0.810976068354
0.810976064137
0.810976063081
0.810976065223
0.810976069411
0.810976074916
0.810976080468
0.810976084996
0.810976087695
0.810976088236
0.810976086277
0.810976082607
0.810976077257
0.810976071403
0.810976064834
0.810976058901
0.810976051797
0.810976045987
0.810976037762
0.810976031534
0.810976022671
0.810976018194
0.798781048641
0.798781035256
0.798781056582
0.79878105012
0.798781064917
0.798781062894
0.798781070622
0.798781069737
0.79878107266
0.798781071075
0.798781069941
0.798781064484
0.79878105801
0.798781047403
0.798781035386
0.798781021102
0.798781006678
0.798780992941
0.79878098134
0.798780972844
0.798780968246
0.798780967388
0.798780970272
0.798780975631
0.798780982527
0.798780989519
0.798780995328
0.798780998959
0.79878100006
0.798780998161
0.798780994185
0.798780988182
0.798780981438
0.798780973856
0.798780966804
0.798780958501
0.798780951492
0.798780941935
0.798780934605
0.798780924626
0.798780919751
0.786585959033
0.786585944896
0.786585967796
0.78658596179
0.786585977926
0.786585976808
0.786585985507
0.786585985311
0.78658598884
0.786585987584
0.786585986515
0.786585980686
0.786585973405
0.786585961531
0.786585947814
0.78658593158
0.786585915087
0.786585899416
0.786585886229
0.786585876656
0.786585871645
0.78658587104
0.786585874793
0.786585881519
0.786585890034
0.786585898703
0.786585906012
0.786585910744
0.78658591252
0.786585910727
0.786585906426
0.786585899706
0.786585891959
0.786585883232
0.786585874906
0.78658586524
0.786585856859
0.786585845806
0.786585837231
0.786585826041
0.786585820768
0.774390869094
0.774390854253
0.774390878752
0.774390873373
0.774390890926
0.774390890913
0.774390900692
0.77439090133
0.77439090556
0.774390904723
0.774390903755
0.774390897553
0.774390889389
0.774390876123
0.774390860515
0.774390842105
0.7743908233
0.774390805463
0.774390790503
0.774390779733
0.774390774271
0.774390773977
0.774390778739
0.774390787041
0.774390797425
0.774390808027
0.774390817077
0.774390823096
0.77439082567
0.774390824034
0.774390819387
0.774390811879
0.774390803007
0.774390792995
0.774390783227
0.774390772024
0.774390762085
0.774390749359
0.774390739386
0.77439072689
0.774390721221
0.762195778808
0.762195763318
0.762195789436
0.762195784867
0.762195803921
0.762195805219
0.762195816197
0.762195817824
0.762195822859
0.762195822537
0.762195821708
0.762195815135
0.762195806009
0.762195791217
0.762195773515
0.762195752685
0.762195731306
0.762195711052
0.762195694116
0.762195682017
0.762195676065
0.762195676142
0.762195682062
0.762195692165
0.762195704687
0.7621957175
0.762195728548
0.762195736054
0.762195739558
0.762195738137
0.762195733121
0.76219572475
0.762195714624
0.762195703175
0.762195691788
0.762195678862
0.762195667168
0.762195652582
0.762195641052
0.762195627149
0.762195621094
0.750000688158
0.750000672081
0.750000699841
0.75000069627
0.750000716911
0.750000719738
0.750000732042
0.750000734818
0.750000740769
0.750000741065
0.75000074042
0.750000733477
0.750000723307
0.750000706846
0.750000686835
0.750000663327
0.750000639095
0.750000616157
0.750000597026
0.750000583458
0.750000576971
0.750000577483
0.750000584719
0.750000596861
0.750000611808
0.750000627126
0.750000640445
0.750000649655
0.750000654229
0.750000653083
0.750000647674
0.750000638361
0.750000626844
0.750000613798
0.750000600608
0.750000585764
0.750000572109
0.750000555471
0.750000542213
0.750000526804
0.750000520375
0.737805597133
0.737805580541
0.737805609964
0.737805607588
0.737805629901
0.737805634479
0.737805648238
0.737805652331
0.737805659315
0.737805660339
0.737805659923
0.737805652615
0.737805641319
0.73780562304
0.737805600496
0.737805574035
0.737805546657
0.737805520754
0.737805499199
0.737805484013
0.737805476941
0.737805477954
0.737805486672
0.737805501104
0.737805518776
0.737805536909
0.737805552789
0.737805563928
0.737805569717
0.737805568911
0.737805563083
0.737805552745
0.737805539695
0.737805524886
0.737805509704
0.737805492741
0.737805476912
0.737805458023
0.737805442866
0.73780542585
0.737805419065
0.725610505723
0.725610488699
0.725610519808
0.725610518827
0.725610542898
0.725610549448
0.725610564796
0.725610570377
0.725610578513
0.725610580377
0.725610580243
0.725610572574
0.725610560068
0.725610539818
0.725610514511
0.725610484815
0.725610453986
0.725610424826
0.725610400606
0.725610383648
0.725610375941
0.725610377521
0.725610387894
0.725610404873
0.725610425585
0.725610446854
0.725610465589
0.725610478893
0.725610486047
0.725610485646
0.725610479372
0.725610467921
0.725610453196
0.725610436453
0.725610419087
0.725610399803
0.725610381583
0.725610360245
0.725610343014
0.725610324291
0.72561031717
0.713415413925
0.713415396565
0.713415429382
0.71341543
0.71341545591
0.713415464649
0.713415481717
0.713415488956
0.713415498367
0.713415501185
0.713415501386
0.713415493363
0.713415479567
0.713415457189
0.713415428887
0.713415395667
0.713415361078
0.713415328362
0.713415301233
0.713415282344
0.713415273949
0.713415276165
0.713415288368
0.713415308158
0.713415332228
0.71341535696
0.713415378853
0.713415394561
0.713415403227
0.713415403298
0.713415396548
0.713415383894
0.71341536735
0.713415348501
0.713415328765
0.713415306958
0.713415286133
0.713415262151
0.713415242674
0.713415222146
0.71341521471
0.701220321738
0.701220304156
0.701220338707
0.701220341126
0.70122036895
0.701220380083
0.701220398996
0.701220408058
0.701220418864
0.70122042275
0.701220423343
0.701220414976
0.701220399811
0.701220375151
0.701220343621
0.70122030659
0.701220267931
0.701220231361
0.701220201076
0.701220180099
0.701220170963
0.701220173885
0.701220188095
0.701220210959
0.701220238707
0.701220267229
0.701220292579
0.701220310927
0.701220321251
0.701220321855
0.701220314596
0.701220300647
0.701220282145
0.701220261021
0.701220238735
0.701220214214
0.701220190577
0.701220163764
0.701220141874
0.701220119448
0.701220111717
0.689025229166
0.689025211499
0.689025247808
0.689025252231
0.689025282033
0.689025295747
0.689025316618
0.68902532766
0.689025339975
0.689025345041
0.689025346082
0.689025337381
0.689025320774
0.689025293682
0.689025258701
0.689025217576
0.689025174544
0.68902513383
0.689025100149
0.689025076931
0.689025067006
0.689025070701
0.689025087094
0.68902511329
0.689025145029
0.68902517766
0.689025206755
0.689025227972
0.689025240088
0.68902524128
0.689025233478
0.689025218141
0.689025197546
0.689025173988
0.689025148986
0.689025121576
0.689025094931
0.689025065116
0.689025040659
0.689025016246
0.689025008234
0.676830136215
0.676830118628
0.676830156723
0.676830163349
0.67683019518
0.676830211635
0.67683023456
0.676830247721
0.676830261649
0.676830268001
0.676830269546
0.676830260524
0.67683024241
0.676830212745
0.6768301741
0.676830128614
0.67683008092
0.676830035786
0.676829998481
0.67682997288
0.676829962121
0.676829966658
0.676829985404
0.676830015181
0.676830051209
0.676830088253
0.676830121363
0.67683014566
0.676830159687
0.676830161511
0.676830153125
0.676830136308
0.676830113495
0.676830087357
0.676830059494
0.676830029043
0.676829999218
0.676829966252
0.676829939089
0.676829912607
0.676829904314
0.664635042893
0.66463502559
0.664635065496
0.664635074522
0.664635108416
0.664635127738
0.664635152787
0.664635168185
0.664635183817
0.664635191549
0.664635193653
0.664635184326
0.664635164649
0.664635132282
0.66463508978
0.664635039686
0.664634987063
0.664634937256
0.664634896121
0.664634868007
0.66463485638
0.664634861826
0.664634883089
0.664634916678
0.664634957272
0.664634999005
0.664635036373
0.664635063937
0.664635079973
0.664635082457
0.664635073441
0.664635055052
0.66463502991
0.664635001065
0.664634970224
0.664634936614
0.664634903466
0.664634867225
0.66463483724
0.664634808615
0.664634800021
0.652439949209
0.652439932438
0.65243997418
0.652439985803
0.652440021774
0.652440044045
0.652440071258
0.65244008898
0.652440106388
0.652440115584
0.652440118297
0.652440108682
0.652440087397
0.652440052218
0.652440005689
0.652439950768
0.652439892982
0.652439838279
0.652439793131
0.652439762398
0.652439749876
0.6524397563
0.65243978023
0.652439817842
0.652439863248
0.652439909915
0.652439951747
0.652439982733
0.652440000847
0.652440004
0.652439994299
0.652439974249
0.652439946683
0.652439915031
0.652439881129
0.652439844281
0.652439807705
0.652439768102
0.652439735206
0.652439704371
0.65243969542
0.640244855165
0.640244839237
0.64024488283
0.640244897251
0.64024493529
0.640244960545
0.640244989921
0.640245010021
0.640245029253
0.64024503998
0.640245043349
0.640245033468
0.640245010544
0.640244972462
0.640244921764
0.640244861831
0.640244798681
0.640244738897
0.640244689587
0.64024465615
0.640244642723
0.640244650191
0.640244676928
0.640244718747
0.640244769178
0.640244820983
0.640244867442
0.640244901965
0.640244922193
0.640244925998
0.640244915549
0.64024489375
0.640244863684
0.640244829154
0.640244792148
0.640244752034
0.640244711971
0.640244668961
0.640244633091
0.640244599986
0.640244590579
0.628049760756
0.628049746049
0.628049791498
0.628049808928
0.628049849006
0.628049877226
0.628049908724
0.628049931214
0.628049952293
0.628049964602
0.62804996867
0.628049958547
0.628049933967
0.628049892914
0.628049837936
0.628049772842
0.628049704168
0.628049639155
0.628049585569
0.628049549369
0.62804953504
0.62804954362
0.628049573289
0.628049619474
0.628049675104
0.628049732209
0.628049783413
0.628049821543
0.628049843885
0.628049848299
0.628049837025
0.628049813391
0.628049780768
0.628049743324
0.628049703217
0.628049659861
0.628049616306
0.628049569884
0.628049531004
0.628049495574
0.628049485548
0.615854665961
0.615854652936
0.615854700229
0.615854720897
0.615854762965
0.615854794079
0.615854827611
0.615854852464
0.615854875388
0.615854889313
0.615854894119
0.615854883785
0.61585485755
0.615854813481
0.61585475414
0.615854683771
0.615854609448
0.615854539096
0.615854481151
0.615854442155
0.615854426942
0.6158544367
0.615854469414
0.615854520099
0.615854581069
0.615854643596
0.615854699618
0.615854741385
0.615854765802
0.615854770751
0.615854758562
0.615854733005
0.615854697786
0.615854657425
0.615854614266
0.61585456775
0.615854520753
0.61585447096
0.615854429053
0.615854391238
0.615854380353
0.603659570736
0.603659559947
0.603659609045
0.603659633209
0.60365967721
0.603659711098
0.603659746535
0.603659773684
0.603659798428
0.603659813993
0.603659819578
0.603659809072
0.603659781199
0.603659734089
0.603659670329
0.603659594596
0.603659514527
0.603659438751
0.603659376386
0.603659334578
0.603659318508
0.603659329515
0.603659365379
0.603659420682
0.603659487108
0.60365955515
0.60365961603
0.603659661427
0.603659687849
0.603659693232
0.60365968002
0.603659652447
0.603659614606
0.603659571356
0.603659525236
0.603659475696
0.603659425359
0.603659372268
0.603659327323
0.603659287054
0.603659274976
0.591464475004
0.5914644671
0.591464517934
0.591464545893
0.591464591773
0.591464628279
0.59146466546
0.59146469481
0.591464721338
0.591464738563
0.591464744976
0.591464734351
0.591464704874
0.591464654714
0.59146458649
0.591464505315
0.591464419407
0.591464338128
0.591464271289
0.591464226653
0.591464209757
0.591464222084
0.591464261204
0.591464321243
0.591464393238
0.591464466881
0.591464532647
0.591464581651
0.591464609987
0.591464615675
0.591464601315
0.591464571622
0.591464531137
0.591464485044
0.591464436084
0.5914643837
0.591464330165
0.591464273875
0.591464225859
0.591464183039
0.59146416933
0.579269378646
0.57926937437
0.579269426839
0.57926945894
0.57926950667
0.579269545627
0.579269584375
0.579269615816
0.579269644094
0.579269663014
0.579269670327
0.579269659656
0.579269628622
0.579269575409
0.57926950267
0.579269415956
0.579269324092
0.579269237202
0.579269165807
0.57926911831
0.57926910061
0.57926911433
0.579269156828
0.579269221744
0.579269299447
0.579269378808
0.579269449511
0.579269502108
0.579269532264
0.579269538117
0.579269522461
0.579269490525
0.579269447358
0.579269398471
0.579269346803
0.579269291775
0.57926923521
0.579269175814
0.579269124641
0.579269079126
0.57926906324
0.567074281488
0.567074281662
0.567074335636
0.567074372291
0.567074421892
0.567074463146
0.567074503297
0.567074536734
0.567074566758
0.567074587441
0.567074595762
0.567074585148
0.567074552621
0.567074496342
0.567074419002
0.567074326597
0.567074228587
0.567074135902
0.567074059801
0.567074009357
0.567073990849
0.567074006039
0.567074052066
0.56707412206
0.567074205687
0.56707429096
0.567074366721
0.567074422951
0.567074454859
0.567074460733
0.567074443613
0.567074409275
0.567074363355
0.567074311695
0.567074257437
0.567074199956
0.567074140515
0.567074078069
0.567074023552
0.567073975125
0.567073956424
0.554879183295
0.554879188788
0.554879244134
0.554879285818
0.5548793374
0.55487938085
0.554879422286
0.554879457668
0.554879489493
0.554879512071
0.554879521568
0.554879511154
0.554879477207
0.554879417821
0.554879335724
0.554879237369
0.554879132894
0.554879034096
0.554878953017
0.554878899449
0.554878880082
0.554878896824
0.55487894659
0.554879021963
0.554879111858
0.554879203383
0.554879284457
0.55487934446
0.554879378118
0.554879383882
0.554879365106
0.554879328156
0.554879279348
0.554879224876
0.554879168087
0.554879108297
0.554879046083
0.554878980561
0.554878922349
0.554878870697
0.554878848482
0.54268408377
0.54268409545
0.542684152082
0.542684199333
0.542684253124
0.542684298762
0.542684341447
0.542684378808
0.542684412584
0.54268443728
0.542684448203
0.542684438181
0.542684402892
0.542684340306
0.542684253184
0.542684148459
0.542684037008
0.54268393158
0.542683845074
0.54268378807
0.542683767729
0.542683786115
0.542683839914
0.542683921118
0.542684017823
0.542684116149
0.542684202991
0.542684267065
0.542684302564
0.542684308121
0.542684287469
0.542684247627
0.542684195699
0.542684138278
0.542684078918
0.542684016868
0.542683951884
0.542683883129
0.542683820656
0.542683765334
0.542683738917
0.530488982559
0.530489001223
0.530489059207
0.530489112615
0.530489168988
0.530489216924
0.530489260935
0.530489300422
0.530489336422
0.530489363577
0.530489376269
0.530489366887
0.530489330325
0.530489264368
0.530489171806
0.530489060082
0.530488940894
0.530488828071
0.53048873547
0.530488674561
0.530488653053
0.530488673197
0.530488731439
0.530488819125
0.530488923431
0.530489029376
0.53048912269
0.530489191327
0.530489228882
0.530489234168
0.530489211383
0.530489168278
0.530489112873
0.530489052232
0.530488990132
0.530488925737
0.530488857849
0.530488785534
0.530488717972
0.530488658391
0.530488627203
0.51829387928
0.518293905578
0.51829396531
0.518294025502
0.518294084968
0.518294135424
0.518294180946
0.518294222822
0.518294261443
0.518294291509
0.518294306404
0.51829429795
0.518294260162
0.518294190564
0.518294091972
0.518293972388
0.518293844447
0.518293723208
0.518293623632
0.518293558205
0.51829353529
0.518293557357
0.518293620597
0.518293715636
0.5182938286
0.51829394326
0.518294043998
0.518294117874
0.5182941578
0.518294162769
0.518294137533
0.518294090683
0.518294031306
0.518293967035
0.518293901887
0.518293834931
0.518293763859
0.518293687487
0.518293613745
0.518293549185
0.51829351293
0.506098773581
0.506098807947
0.506098870457
0.506098938079
0.50609900121
0.50609905444
0.506099101686
0.506099146261
0.506099187963
0.50609922145
0.506099239017
0.506099231775
0.506099192749
0.506099119131
0.506099013769
0.506098885289
0.5060987474
0.506098616582
0.506098509056
0.506098438467
0.506098413944
0.506098438209
0.506098507162
0.506098610618
0.506098733497
0.50609885814
0.506098967382
0.506099047231
0.506099089833
0.506099094369
0.506099066255
0.506099015061
0.506098951103
0.506098882697
0.506098814128
0.506098744335
0.506098669733
0.506098588723
0.506098507551
0.50609843723
0.506098396094
)
;

boundaryField
{
    inout
    {
        type            empty;
    }
    top
    {
        type            fixedValue;
        value           nonuniform List<scalar> 
41
(
0.500001221411
0.50000126005
0.500001323941
0.500001395008
0.500001459589
0.500001513733
0.500001561392
0.500001606966
0.500001649965
0.500001685019
0.500001703883
0.500001697315
0.500001657839
0.500001582476
0.50000147408
0.500001341556
0.500001199117
0.500001063917
0.500000952754
0.500000879804
0.500000854558
0.500000879846
0.500000951427
0.500001058741
0.500001186144
0.500001315314
0.500001428357
0.500001510796
0.500001554429
0.500001558561
0.500001528962
0.50000147569
0.500001409681
0.500001339577
0.500001269763
0.500001199095
0.500001123268
0.500001040418
0.500000955665
0.500000882748
0.500000839868
)
;
    }
    bottom
    {
        type            fixedValue;
        value           uniform 1;
    }
    frontback
    {
        type            empty;
    }
}


// ************************************************************************* //
