/*--------------------------------*- C++ -*----------------------------------*\
| =========                 |                                                 |
| \\      /  F ield         | OpenFOAM: The Open Source CFD Toolbox           |
|  \\    /   O peration     | Version:  2112                                  |
|   \\  /    A nd           | Website:  www.openfoam.com                      |
|    \\/     M anipulation  |                                                 |
\*---------------------------------------------------------------------------*/
FoamFile
{
    version     2.0;
    format      ascii;
    arch        "LSB;label=32;scalar=64";
    class       volScalarField;
    location    "0.8";
    object      T;
}
// * * * * * * * * * * * * * * * * * * * * * * * * * * * * * * * * * * * * * //

dimensions      [0 0 0 1 0 0 0];

internalField   nonuniform List<scalar> 
1681
(
319.82641607
319.827656575
319.829957615
319.833013675
319.836502367
319.840128522
319.843668023
319.846973197
319.849961329
319.852598321
319.8548829
319.856833865
319.858480873
319.859858227
319.861000974
319.861942605
319.862713829
319.86334203
319.86385115
319.864261809
319.864591559
319.864855198
319.865065102
319.865231547
319.865363015
319.865466461
319.865547563
319.865610931
319.86566029
319.865698639
319.865728382
319.865751443
319.865769357
319.865783349
319.865794405
319.86580334
319.865810934
319.865818043
319.865824263
319.865825098
319.865826235
319.479207633
319.482936272
319.489851651
319.499033745
319.509512276
319.520400469
319.531025736
319.540945452
319.549912097
319.557823999
319.564677825
319.570530339
319.575470743
319.579602103
319.583029649
319.5858539
319.588167003
319.59005112
319.591578074
319.592809717
319.593798696
319.594589397
319.595218938
319.59571814
319.596112438
319.596422695
319.59666594
319.596855996
319.597004037
319.597119058
319.597208268
319.597277436
319.597331165
319.597373133
319.597406295
319.597433092
319.597455866
319.597477251
319.597496136
319.597498346
319.597501443
319.131876921
319.138115357
319.149682024
319.165031909
319.182537705
319.20071713
319.218448431
319.234995232
319.249947114
319.263136672
319.274559998
319.284312893
319.292544827
319.299428079
319.305138328
319.309843266
319.313696543
319.316835118
319.319378685
319.321430309
319.323077706
319.324394819
319.325443481
319.326275036
319.326931849
319.327448676
319.327853876
319.328170479
319.328417095
319.328608706
319.328757322
319.328872551
319.328962062
319.329031982
319.32908723
319.329131867
319.329169797
319.3292056
319.329237746
319.329240565
319.329244853
318.784340532
318.793125787
318.809405804
318.830993279
318.855588885
318.881108207
318.905979233
318.929173908
318.950122115
318.968593808
318.984586981
318.998238254
319.009758562
319.019390148
319.027379581
319.033961962
319.039352552
319.043743138
319.047301273
319.050171198
319.05247565
319.054318084
319.055785004
319.056948234
319.057867035
319.058590022
319.059156866
319.059599777
319.059944788
319.060212852
319.060420772
319.060581986
319.060707222
319.060805049
319.060882352
319.060944798
319.060997844
319.061048196
319.061094256
319.061096857
319.061101767
318.436513302
318.447898362
318.468979656
318.496903056
318.528676411
318.561603807
318.593661578
318.623533019
318.650492876
318.674252807
318.694816181
318.712362934
318.72716713
318.73954202
318.749805677
318.758260935
318.765184816
318.770823974
318.775393802
318.779079664
318.782039258
318.784405482
318.786289446
318.787783397
318.788963443
318.789892018
318.790620065
318.791188948
318.791632098
318.791976424
318.792243504
318.792450594
318.792611473
318.792737148
318.792836461
318.792916673
318.792984786
318.793049783
318.793110366
318.793111992
318.793117175
318.088307745
318.10236228
318.128359689
318.162746641
318.20181146
318.24223467
318.281539402
318.318124418
318.351115295
318.380171041
318.405304868
318.42674323
318.444825445
318.459937105
318.472468559
318.48279079
318.491242768
318.498126059
318.503703871
318.508202625
318.511814893
318.51470293
318.517002372
318.518825814
318.520266148
318.521399569
318.52228825
318.522982672
318.523523633
318.523943972
318.524270024
318.524522851
318.524719268
318.524872713
318.524993976
318.525091903
318.525175021
318.525254721
318.525330348
318.525330355
318.525335605
317.73963334
317.756444658
317.787501272
317.828509705
317.875005957
317.923032342
317.969657271
318.013000327
318.052045401
318.086405815
318.116110101
318.141435123
318.162788039
318.180628381
318.19541971
318.207601654
318.217575345
318.225697324
318.23227857
318.237586479
318.241848393
318.245255821
318.24796882
318.250120245
318.251819691
318.253157049
318.254205666
318.255025094
318.255663461
318.256159507
318.256544302
318.256842692
318.257074519
318.257255636
318.257398777
318.257514359
318.257612409
318.257706834
318.257797912
318.257795777
318.257800968
317.390395756
317.410070015
317.446358861
317.494178259
317.54827275
317.604029338
317.658060481
317.70821338
317.753339332
317.793014302
317.827288626
317.85649416
317.881108917
317.901668243
317.918709991
317.932743002
317.94423082
317.953585017
317.961164298
317.96727693
317.972184901
317.976108843
317.979233121
317.981710739
317.983667901
317.985208117
317.986415841
317.98735964
317.988094932
317.988666322
317.989109585
317.989453333
317.989720414
317.989929089
317.990094022
317.990227186
317.990340086
317.990449218
317.99055604
317.990551353
317.990556395
317.040496012
317.063159749
317.104885837
317.159738759
317.221625801
317.285259314
317.346795174
317.403816666
317.455053318
317.500053477
317.538896777
317.571975324
317.599841423
317.623108353
317.642389483
317.658263499
317.671256632
317.681835541
317.690406595
317.69731881
317.702868676
317.707305803
317.710838717
317.713640451
317.71585371
317.717595531
317.718961398
317.720028832
317.720860488
317.721506798
317.72200821
317.722397076
317.722699232
317.722935328
317.723121951
317.723272616
317.723400273
317.723524061
317.723646806
317.723639256
317.723644072
316.689829583
316.715631594
316.763034375
316.82517824
316.895080403
316.966757262
317.035908457
317.099863768
317.157243656
317.207580045
317.250990374
317.287932907
317.319038092
317.344999489
317.366507327
317.384210832
317.398699214
317.410494271
317.42004996
317.427755902
317.433942923
317.438889437
317.442827977
317.44595146
317.44841897
317.450360965
317.451883874
317.453074101
317.454001481
317.454722226
317.45528142
317.455715127
317.45605215
317.456315513
317.456523708
317.456691779
317.456834091
317.45697245
317.457111188
317.457100558
317.457105073
316.338285427
316.367399053
316.420755346
316.490484495
316.568653437
316.648559712
316.725448518
316.796408803
316.859966689
316.915650371
316.963624615
317.004420391
317.038750509
317.067391385
317.091111559
317.110631541
317.126603822
317.139605386
317.150137679
317.158630764
317.165449608
317.17090124
317.175242019
317.178684587
317.181404268
317.183544826
317.185223534
317.186535604
317.187557984
317.188352614
317.188969175
317.189447411
317.189819065
317.190109517
317.190339151
317.190524522
317.190681374
317.190834187
317.190988892
317.190975046
317.190979182
315.985744924
316.018370805
316.077998252
316.155646301
316.242363655
316.330704956
316.415464757
316.493506459
316.563278769
316.624320402
316.676853968
316.721490306
316.759029168
316.790332583
316.816248954
316.837570857
316.855014369
316.869211693
316.880711647
316.889984545
316.897429279
316.903381276
316.908120523
316.911879208
316.914848742
316.917186063
316.919019186
316.920452035
316.921568604
316.922436503
316.923109965
316.923632378
316.924038398
316.924355738
316.924606661
316.924809211
316.924980476
316.925147596
316.925318155
316.925301031
316.925304714
315.632080706
315.668450094
315.734711207
315.82065371
315.916232006
316.013233291
316.106007909
316.19121203
316.26723623
316.333645583
316.390732058
316.439194102
316.479923313
316.513870264
316.541964852
316.565072521
316.58397324
316.599354446
316.611812185
316.621856804
316.629920878
316.636367994
316.641501543
316.645573065
316.648789887
316.651321981
316.653307981
316.654860431
316.656070288
316.657010771
316.657740615
316.658306811
316.6587469
316.659090905
316.659362945
316.659582541
316.659768082
316.659949328
316.660135549
316.660115162
316.660118323
315.277155353
315.317534076
315.390840974
315.485498402
315.590282009
315.696187268
315.797130177
315.889581439
315.971895331
316.043680762
316.105311538
316.157582
316.201480787
316.238050089
316.268302988
316.293178612
316.313521117
316.330073162
316.343477852
316.354285318
316.36296155
316.36989803
316.375421312
316.379802068
316.383263362
316.385988037
316.388125222
316.389795971
316.391098122
316.392110431
316.392896081
316.393505624
316.393979452
316.394349872
316.39464284
316.394879331
316.395078995
316.395274161
316.395475783
316.395452217
316.395454802
314.920819935
314.965513145
315.046333073
315.150174125
315.264540168
315.379611973
315.488885357
315.588671257
315.677312209
315.754480088
315.820643956
315.876702838
315.92374786
315.96291602
315.995305308
316.021929358
316.043696783
316.061405426
316.075745246
316.087305883
316.096586442
316.104006009
316.109914034
316.114600092
316.118302776
316.121217637
316.123504152
316.125291773
316.126685123
316.127768424
316.128609244
316.129261652
316.129768853
316.130165409
316.130479094
316.130732314
316.130945937
316.131154786
316.131371485
316.1313449
316.131346872
314.562912362
314.612270221
314.701131977
314.814677221
314.939036446
315.063555316
315.181328961
315.288538708
315.383542804
315.466096897
315.536779617
315.596603915
315.646769063
315.688510137
315.723011783
315.751362942
315.774536927
315.79338669
315.808648805
315.82095211
315.830828494
315.838724332
315.845011681
315.849998763
315.853939483
315.857041916
315.859475737
315.86137867
315.862862022
315.864015399
315.864910691
315.865605433
315.866145602
315.866567987
315.866902155
315.867171918
315.86739932
315.86762159
315.867852986
315.867823618
315.867824971
314.203255509
314.257680014
314.355181417
314.479007269
314.613804793
314.748068338
314.874518342
314.989241666
315.090642782
315.178583583
315.253767424
315.317330816
315.370587001
315.414872454
315.451460215
315.481515306
315.506075943
315.526050069
315.542220596
315.555255211
315.565718228
315.574082962
315.580743768
315.586027238
315.590202356
315.593489523
315.596068448
315.598084992
315.599657039
315.600879489
315.601828489
315.602564979
315.603137672
315.603585547
315.603939937
315.604226041
315.604467027
315.604702428
315.604948092
315.604916258
315.604917022
313.841655065
313.901608255
314.008424828
314.143167856
314.288883744
314.433205535
314.568512806
314.690838637
314.798667439
314.891991463
314.971654717
315.038927238
315.095242169
315.14204072
315.180686035
315.212419944
315.238345716
315.259426126
315.276490099
315.290243784
315.301283523
315.310109202
315.317137131
315.322711981
315.327117563
315.330586389
315.333308028
315.335436335
315.337095653
315.338386085
315.339387954
315.340165552
315.340770279
315.34124327
315.341617596
315.341919816
315.342174176
315.342422392
315.342681852
315.342647955
315.342648203
313.477897058
313.54391092
313.660805973
313.807167498
313.964317074
314.1190252
314.263373719
314.393388728
314.507671593
314.606370627
314.690487106
314.761434805
314.820772759
314.870050222
314.910722099
314.944107691
314.971375415
314.993542658
315.011483987
315.025943587
315.037549396
315.046827465
315.054215701
315.060076534
315.064708333
315.068355496
315.071217262
315.073455328
315.07520037
315.076557592
315.077611416
315.078429423
315.079065646
315.079563342
315.079957288
315.080275376
315.080542884
315.080803576
315.081076319
315.081040855
315.081040713
313.111744989
313.184433437
313.312269785
313.471020729
313.640154538
313.805589771
313.959164603
314.096951597
314.217709463
314.321769781
314.410308288
314.484892875
314.54721446
314.598933581
314.64159848
314.676606515
314.705191275
314.728424477
314.747225909
314.762377317
314.774537771
314.784259052
314.792000271
314.798141284
314.802994727
314.806816642
314.809815741
314.812161396
314.813990483
314.815413201
314.816517984
314.817375633
314.818042765
314.818564712
314.81897793
314.819311615
314.819592028
314.819864833
314.820150311
314.820113873
314.820113528
312.742936482
312.823009916
312.962763487
313.134749391
313.316452672
313.492966188
313.655951218
313.801587392
313.928834536
314.038236079
314.131159864
314.209338353
314.274600261
314.328720549
314.373342262
314.409941306
314.439816381
314.464093189
314.483736261
314.499564387
314.512267257
314.522421917
314.530508269
314.536923231
314.541993401
314.54598621
314.549119626
314.551570523
314.553481837
314.554968645
314.556123303
314.557019758
314.557717154
314.558262857
314.558694964
314.559043949
314.559337004
314.559621536
314.559919171
314.559882461
314.559882169
312.371179362
312.459462411
312.612238059
312.798384154
312.993275675
313.181226259
313.353801626
313.507356668
313.641099416
313.755814943
313.853081152
313.93480549
314.002960251
314.059437805
314.105977332
314.144133661
314.175270457
314.200566985
314.221031978
314.237520702
314.250752924
314.26133045
314.26975353
314.276435763
314.281717382
314.285876933
314.289141418
314.291695026
314.293686599
314.295235973
314.296439326
314.297373677
314.298100633
314.298669547
314.299120122
314.299484081
314.299789497
314.300085349
314.300394536
314.300358367
314.300358459
311.996147024
312.093600277
312.260650141
312.46196628
312.670696362
312.870447012
313.052786233
313.214320286
313.354555669
313.474549887
313.576108994
313.661325694
313.732321427
313.791108761
313.83952418
313.87920169
313.911569663
313.937860429
313.959126318
313.976258453
313.990006087
314.000995253
314.009746079
314.016688433
314.022175843
314.02649768
314.029889738
314.032543324
314.03461303
314.036223318
314.037474088
314.038445341
314.039201089
314.039792619
314.0402612
314.040639775
314.04095725
314.041263993
314.041584106
314.041549411
314.041550304
311.617472942
311.725219651
311.907964474
312.125549677
312.348797172
312.560711041
312.752977805
312.922539292
313.069253647
313.194482327
313.300277572
313.388927338
313.462707499
313.523753369
313.573999713
313.615159816
313.648726398
313.67598426
313.698028662
313.715785909
313.730034106
313.741422944
313.750491924
313.757686758
313.763373899
313.767853239
313.771369111
313.774119734
313.776265277
313.777934694
313.77923149
313.780238567
313.781022268
313.781635761
313.782121843
313.782514643
313.782843853
313.783161038
313.78349143
313.783459272
313.783461471
311.234744113
311.354103174
311.554157028
311.789203265
312.027671235
312.252106824
312.454451455
312.632074775
312.785242312
312.915651393
313.025618215
313.11763558
313.194138716
313.257387942
313.30941707
313.352018602
313.386749119
313.414945216
313.437744336
313.456107236
313.470840198
313.48261596
313.491992867
313.499432019
313.505312409
313.509944127
313.513579778
313.516424273
313.518643177
313.52036979
313.521711109
313.522752838
313.523563579
313.524198322
313.524701349
313.525107946
313.525448544
313.525775701
313.526115713
313.526087287
313.526091398
310.847493196
310.980020037
311.199218965
311.453013666
311.707423463
311.944728998
312.157284584
312.342987702
312.502569042
312.638093749
312.752159231
312.847472196
312.926631701
312.992024998
313.045785465
313.089784584
313.125642181
313.154745863
313.17827444
313.197222331
313.212423268
313.224572394
313.234246336
313.241921099
313.247987812
313.252766422
313.256517523
313.259452486
313.261742085
313.263523808
313.264908021
313.265983131
313.266819916
313.267475133
313.267994498
313.268414424
313.268766036
313.269102678
313.269451636
313.269428281
313.269435012
310.455189017
310.602726537
310.84316167
311.117088258
311.388171646
311.638678583
311.861556791
312.055338733
312.221279442
312.361843404
312.479925735
312.578455418
312.6601993
312.727673112
312.783110046
312.828460137
312.865405697
312.895384462
312.919615713
312.93912668
312.954777772
312.967285853
312.97724524
312.985146337
312.991391978
312.996311612
313.000173525
313.003195302
313.005552726
313.007387312
313.008812658
313.00991977
313.010781521
313.011456364
313.011991402
313.012424146
313.012786373
313.01313199
313.013489214
313.013472417
313.013482587
310.057225059
310.221967352
310.486023084
310.781558563
311.070047501
311.334063126
311.567349721
311.76918801
311.941417142
312.086931544
312.208939498
312.310599809
312.394850463
312.464336802
312.521391785
312.568043362
312.606035429
312.636854859
312.661760422
312.681811249
312.697893604
312.710745348
312.720977862
312.729095417
312.735512103
312.740566493
312.744534253
312.747638926
312.750061091
312.751946116
312.753410695
312.75454832
312.755433864
312.75612741
312.756677397
312.7571224
312.757494814
312.757848878
312.758213679
312.758205081
312.75821963
309.652905403
309.837477853
310.127875689
310.446583973
310.753197631
311.030996748
311.274746863
311.484594928
311.663023597
311.813386366
311.939218816
312.043916141
312.130590143
312.202016436
312.260627388
312.308528009
312.347522713
312.379146407
312.40469629
312.425262413
312.441756025
312.454935219
312.465427784
312.473751297
312.480330631
312.485513089
312.48958139
312.492764761
312.495248355
312.497181216
312.498682981
312.499849507
312.500757576
312.501468823
312.502032969
312.502489623
312.502871763
312.503233724
312.503605406
312.503606815
312.503626809
309.241427489
309.448987885
309.768836515
310.112355742
310.437784314
310.729600064
310.983833282
311.201617876
311.386137893
311.541232936
311.670778403
311.77841132
311.86741923
311.940708182
312.000809256
312.049903429
312.089854415
312.122243933
312.148406457
312.169461921
312.18634563
312.199835108
312.210573859
312.219092178
312.225825228
312.231128627
312.235291802
312.238549381
312.241090859
312.243068758
312.244605505
312.245799195
312.246728418
312.24745628
312.248033726
312.248501366
312.24889274
312.249262028
312.249639887
312.249653282
312.249679925
308.821860846
309.056227595
309.409079682
309.779101138
310.12398603
310.429999961
310.694695284
310.920313962
311.110796549
311.270493056
311.403629301
311.514088327
311.605334518
311.680403987
311.741925467
311.792154577
311.833012939
311.866127741
311.892869495
311.914386906
311.931638362
311.945419968
311.956390221
311.96509152
311.971968798
311.977385554
311.981637563
311.984964556
311.987560121
311.989580059
311.991149422
311.992368408
311.993317305
311.994060608
311.994650418
311.995128322
311.995528402
311.995904425
311.996287743
311.996315285
311.99634994
308.393120699
308.658936143
309.048852071
309.447087561
309.811997614
310.132329202
310.407420005
310.640738721
310.837033338
311.001185161
311.137778832
311.250946202
311.344328711
311.421091596
311.483959815
311.535262052
311.576976272
311.610773667
311.638059461
311.660009949
311.677605573
311.691660135
311.702846362
311.711718114
311.718729554
311.724251608
311.728586022
311.731977316
311.734622914
311.736681685
311.738281127
311.739523402
311.740490381
311.741247855
311.741849018
311.7423364
311.742744622
311.743126764
311.743514799
311.743558848
311.743603053
307.953935076
308.256874414
308.688492864
309.116626329
309.502029906
309.836725835
310.122094924
310.362945791
310.564879105
310.733324236
310.873230577
310.988980064
311.084390471
311.162754621
311.22689189
311.279202187
311.321718083
311.356153183
311.383946005
311.406299187
311.424214143
311.43852144
311.449907244
311.458936204
311.466071145
311.471689949
311.476099936
311.47955009
311.4822414
311.484335577
311.485962386
311.4872258
311.48820915
311.488979429
311.489590852
311.490086858
311.490502617
311.490890242
311.491282217
311.49134534
311.491400848
307.502803563
307.84984327
308.328457873
308.788075672
309.194308733
309.543332399
309.838807297
310.08698659
310.294361615
310.466921763
310.609984386
310.728181167
310.825504501
310.905372649
310.970697197
311.023947185
311.067207869
311.102233553
311.130494537
311.153218487
311.171426652
311.185965393
311.197533486
311.206705667
311.213952838
311.219659339
311.224137654
311.227640889
311.230373313
311.232499246
311.234150528
311.235432783
311.236430673
311.237212291
311.237832792
311.238336496
311.238759149
311.239151598
311.239546674
311.239631669
311.239700497
307.037945345
307.437709506
307.969349728
308.461842227
308.889073054
309.252294931
309.557643513
309.812909966
310.025505408
310.2019857
310.348036437
310.468537004
310.567651687
310.648921401
310.715347339
310.769465309
310.813411155
310.848978038
310.877666437
310.900727661
310.919201605
310.933949408
310.945681593
310.954982256
310.96232976
310.96811439
310.972653367
310.976203556
310.978972214
310.981126025
310.982798698
310.984097343
310.985107818
310.985899204
310.986527512
310.987037911
310.987466772
310.987863367
310.988260617
310.988370531
310.988455032
306.557233404
307.020442431
307.611955263
308.138380034
308.586572113
308.96376178
309.278688368
309.540761843
309.758331677
309.938520487
310.087379317
310.210031447
310.310809267
310.393372935
310.460810236
310.515721122
310.560289747
310.596346163
310.625419331
310.64878275
310.667493719
310.682427096
310.694304257
310.703717898
310.711153203
310.717005872
310.721597409
310.725188075
310.727987799
310.730165375
310.731856169
310.7331686
310.734189577
310.734989054
310.735623807
310.736139812
310.736574156
310.736974205
310.737372566
310.737510717
310.737613689
306.058110793
306.59816515
307.257291659
307.818185571
308.287061441
308.677882294
309.002024274
309.270584865
309.492858173
309.676527089
309.828002154
309.952644926
310.054951058
310.138695891
310.207050394
310.262675771
310.307802033
310.344294026
310.37370741
310.397336352
310.41625426
310.431348612
310.443350703
310.452861042
310.460370978
310.466281065
310.470916631
310.474540937
310.477366269
310.479563261
310.481268713
310.482592169
310.483621437
310.484427222
310.48506696
310.485587396
310.486026452
310.486429262
310.486827481
310.486997477
310.487122318
305.537483569
306.171226153
306.90666318
307.501786721
307.99079765
308.394805442
308.727730385
309.002418034
309.229099134
309.416003069
309.569890776
309.696354654
309.800047712
309.884855788
309.954029222
310.010287324
310.055903327
310.092774659
310.122481803
310.146338004
310.165431433
310.180661044
310.192767089
310.202357077
310.20992783
310.215884183
310.220554807
310.224205561
310.227050752
310.229262573
310.230979029
310.232310593
310.233345812
310.234156011
310.234799181
310.235322775
310.23576573
310.23617062
310.236567179
310.236772931
310.23692386
304.991583242
305.740298935
306.561730615
307.189722763
307.698032087
308.114678527
308.455881653
308.736296359
308.967065243
309.156942691
309.313027912
309.441134883
309.546067019
309.631815351
309.701705387
309.758511141
309.804546268
309.841738438
309.871690996
309.89573461
309.914970817
309.930308866
309.942496964
309.952148776
309.959765894
309.965756835
309.970453111
309.974122766
309.976981775
309.979203604
309.980927217
309.982263816
309.983302518
309.984115132
309.98476008
309.985285455
309.98573145
309.986137782
309.986530803
309.986776522
309.986958891
304.415789264
305.306520361
306.224595812
306.882511223
307.409003703
307.837646162
308.186547799
308.472250514
308.706763622
308.899337058
309.057393414
309.186957191
309.292974239
309.379534874
309.450035202
309.507300288
309.553681241
309.59113352
309.621281284
309.645470908
309.664815843
309.680234413
309.692481748
309.702176803
309.7098252
309.715838529
309.720550623
309.724231278
309.727097778
309.729324559
309.731051296
309.732389704
309.733429294
309.734242218
309.734887197
309.735412862
309.735860988
309.736268207
309.73665534
309.736945497
309.737166231
303.804398897
304.871682536
305.897903826
306.580595856
307.123931914
307.563849741
307.919792154
308.210306526
308.448197857
308.643174273
308.802964519
308.933790804
309.040732459
309.127972618
309.198973046
309.256605976
309.30325684
309.34090632
309.371197263
309.395489966
309.4149083
309.430378402
309.442661265
309.452380232
309.460044206
309.46606721
309.470784867
309.474468278
309.477335663
309.479562115
309.481287756
309.482624598
309.483662359
309.484473385
309.485116552
309.485640893
309.486090182
309.486497874
309.48687617
309.487215406
309.487483617
)
;

boundaryField
{
    inout
    {
        type            empty;
    }
    top
    {
        type            fixedValue;
        value           nonuniform List<scalar> 
41
(
303.477363249
304.655090482
305.74143437
306.432431675
306.983471302
307.428638559
307.787731052
308.080395807
308.319782737
308.515806701
308.676340058
308.807696587
308.915017423
309.002528609
309.0737221
309.131491661
309.178238244
309.215953805
309.246289429
309.270611457
309.290048198
309.305529046
309.317817378
309.32753827
309.335201876
309.34122311
309.345938216
309.349618714
309.3524831
309.354706635
309.356429529
309.357763827
309.358799254
309.359608178
309.360249473
309.360772275
309.361221623
309.361629447
309.362001526
309.362367671
309.362664957
)
;
    }
    bottom
    {
        type            fixedValue;
        value           uniform 320;
    }
    frontback
    {
        type            empty;
    }
}


// ************************************************************************* //
