/*--------------------------------*- C++ -*----------------------------------*\
| =========                 |                                                 |
| \\      /  F ield         | OpenFOAM: The Open Source CFD Toolbox           |
|  \\    /   O peration     | Version:  2112                                  |
|   \\  /    A nd           | Website:  www.openfoam.com                      |
|    \\/     M anipulation  |                                                 |
\*---------------------------------------------------------------------------*/
FoamFile
{
    version     2.0;
    format      ascii;
    arch        "LSB;label=32;scalar=64";
    class       surfaceScalarField;
    location    "6";
    object      phi;
}
// * * * * * * * * * * * * * * * * * * * * * * * * * * * * * * * * * * * * * //

dimensions      [1 0 -1 0 0 0 0];

oriented        oriented;

internalField   nonuniform List<scalar> 
23692
(
2.32941e-06
-2.41903e-09
2.33378e-06
-4.37709e-09
2.3399e-06
-6.12001e-09
2.34756e-06
-7.654e-09
2.35659e-06
-9.02769e-09
2.36686e-06
-1.02708e-08
2.37827e-06
-1.1403e-08
2.39071e-06
-1.24398e-08
2.4041e-06
-1.33937e-08
2.41838e-06
-1.42741e-08
2.43347e-06
-1.5089e-08
2.44932e-06
-1.5845e-08
2.46587e-06
-1.65472e-08
2.48308e-06
-1.72004e-08
2.50089e-06
-1.78082e-08
2.51927e-06
-1.8374e-08
2.53817e-06
-1.89004e-08
2.55757e-06
-1.93897e-08
2.57741e-06
-1.98441e-08
2.59768e-06
-2.02652e-08
2.61834e-06
-2.06545e-08
2.63936e-06
-2.10133e-08
2.66071e-06
-2.13426e-08
2.68236e-06
-2.16435e-08
2.70428e-06
-2.19166e-08
2.72645e-06
-2.21628e-08
2.74883e-06
-2.23825e-08
2.77142e-06
-2.25764e-08
2.79417e-06
-2.27449e-08
2.81706e-06
-2.28882e-08
2.84007e-06
-2.30067e-08
2.86318e-06
-2.31006e-08
2.88635e-06
-2.31701e-08
2.90957e-06
-2.32153e-08
2.93281e-06
-2.32361e-08
2.95605e-06
-2.32327e-08
2.97926e-06
-2.32049e-08
3.00242e-06
-2.31525e-08
3.0255e-06
-2.30753e-08
3.04847e-06
-2.29731e-08
3.07132e-06
-2.28453e-08
3.09402e-06
-2.26916e-08
3.11653e-06
-2.25114e-08
3.13884e-06
-2.23038e-08
3.16091e-06
-2.2068e-08
3.18272e-06
-2.1803e-08
3.20423e-06
-2.15076e-08
3.22541e-06
-2.11804e-08
3.24624e-06
-2.08195e-08
3.26666e-06
-2.04232e-08
3.28665e-06
-1.99889e-08
3.30617e-06
-1.95139e-08
3.32517e-06
-1.8995e-08
3.3436e-06
-1.84283e-08
3.36141e-06
-1.78093e-08
3.37854e-06
-1.71324e-08
3.39494e-06
-1.63913e-08
3.41052e-06
-1.55781e-08
3.4252e-06
-1.46833e-08
3.4389e-06
-1.36953e-08
3.4515e-06
-1.26001e-08
3.46288e-06
-1.13802e-08
3.4729e-06
-1.00138e-08
3.48137e-06
-8.47342e-09
3.4881e-06
-6.72395e-09
3.49282e-06
-4.72024e-09
3.49522e-06
-2.40313e-09
3.49492e-06
3.05214e-10
3.4914e-06
3.51373e-09
3.48403e-06
7.37115e-09
3.47194e-06
1.20908e-08
3.45396e-06
1.79823e-08
3.42845e-06
2.55082e-08
3.39307e-06
3.53806e-08
3.34435e-06
4.87271e-08
3.27696e-06
6.73851e-08
3.18254e-06
9.44197e-08
3.04745e-06
1.35088e-07
2.84838e-06
1.99076e-07
2.54212e-06
3.0626e-07
5.13655e-07
2.02846e-06
2.4925e-06
-4.94336e-09
2.49716e-06
-9.03438e-09
2.50369e-06
-1.26476e-08
2.51186e-06
-1.58221e-08
2.5215e-06
-1.86661e-08
2.53247e-06
-2.12393e-08
2.54465e-06
-2.35824e-08
2.55794e-06
-2.57284e-08
2.57225e-06
-2.77022e-08
2.5875e-06
-2.95241e-08
2.60363e-06
-3.12102e-08
2.62056e-06
-3.27741e-08
2.63824e-06
-3.4227e-08
2.65663e-06
-3.55782e-08
2.67566e-06
-3.68354e-08
2.69529e-06
-3.80056e-08
2.71549e-06
-3.90942e-08
2.73621e-06
-4.01062e-08
2.75742e-06
-4.10458e-08
2.77907e-06
-4.19164e-08
2.80115e-06
-4.27211e-08
2.8236e-06
-4.34627e-08
2.84641e-06
-4.41432e-08
2.86953e-06
-4.47648e-08
2.89295e-06
-4.5329e-08
2.91663e-06
-4.58373e-08
2.94055e-06
-4.6291e-08
2.96467e-06
-4.66911e-08
2.98896e-06
-4.70385e-08
3.01342e-06
-4.73339e-08
3.03799e-06
-4.7578e-08
3.06267e-06
-4.77711e-08
3.08742e-06
-4.79137e-08
3.11221e-06
-4.80059e-08
3.13703e-06
-4.80478e-08
3.16184e-06
-4.80394e-08
3.18662e-06
-4.79805e-08
3.21134e-06
-4.78708e-08
3.23598e-06
-4.77098e-08
3.26051e-06
-4.7497e-08
3.2849e-06
-4.72314e-08
3.30913e-06
-4.69122e-08
3.33316e-06
-4.6538e-08
3.35697e-06
-4.61073e-08
3.38052e-06
-4.56185e-08
3.40379e-06
-4.50693e-08
3.42674e-06
-4.44573e-08
3.44935e-06
-4.37794e-08
3.47156e-06
-4.30324e-08
3.49335e-06
-4.2212e-08
3.51468e-06
-4.13134e-08
3.5355e-06
-4.03312e-08
3.55577e-06
-3.92585e-08
3.57543e-06
-3.80876e-08
3.59443e-06
-3.68092e-08
3.61271e-06
-3.54122e-08
3.63021e-06
-3.38834e-08
3.64684e-06
-3.2207e-08
3.66252e-06
-3.03639e-08
3.67716e-06
-2.83307e-08
3.69064e-06
-2.60793e-08
3.70284e-06
-2.35744e-08
3.7136e-06
-2.07726e-08
3.72274e-06
-1.76193e-08
3.73006e-06
-1.40452e-08
3.73531e-06
-9.96135e-09
3.73816e-06
-5.25236e-09
3.73823e-06
2.33343e-10
3.73504e-06
6.70099e-09
3.72798e-06
1.4431e-08
3.71626e-06
2.38161e-08
3.69883e-06
3.54135e-08
3.67431e-06
5.00318e-08
3.64082e-06
6.88682e-08
3.59582e-06
9.37278e-08
3.53584e-06
1.27367e-07
3.45627e-06
1.7399e-07
3.35145e-06
2.39905e-07
3.21613e-06
3.34396e-07
3.0536e-06
4.68786e-07
6.38379e-07
2.92888e-06
2.66699e-06
-7.55779e-09
2.67193e-06
-1.39656e-08
2.67886e-06
-1.95778e-08
2.68755e-06
-2.45117e-08
2.69781e-06
-2.89298e-08
2.7095e-06
-3.29261e-08
2.72249e-06
-3.65648e-08
2.73666e-06
-3.98964e-08
2.75192e-06
-4.29606e-08
2.76819e-06
-4.57883e-08
2.78538e-06
-4.84052e-08
2.80345e-06
-5.08321e-08
2.82231e-06
-5.30862e-08
2.84192e-06
-5.51823e-08
2.86222e-06
-5.71326e-08
2.88317e-06
-5.89473e-08
2.90471e-06
-6.06355e-08
2.92682e-06
-6.22045e-08
2.94944e-06
-6.36609e-08
2.97254e-06
-6.50102e-08
2.99608e-06
-6.62571e-08
3.02003e-06
-6.74058e-08
3.04435e-06
-6.84597e-08
3.06901e-06
-6.94219e-08
3.09398e-06
-7.0295e-08
3.11923e-06
-7.10813e-08
3.14473e-06
-7.17827e-08
3.17045e-06
-7.24007e-08
3.19635e-06
-7.29369e-08
3.22241e-06
-7.33924e-08
3.24861e-06
-7.3768e-08
3.27491e-06
-7.40646e-08
3.30128e-06
-7.42825e-08
3.3277e-06
-7.44223e-08
3.35415e-06
-7.44839e-08
3.38058e-06
-7.44675e-08
3.40698e-06
-7.43726e-08
3.43331e-06
-7.41989e-08
3.45955e-06
-7.39456e-08
3.48567e-06
-7.36118e-08
3.51164e-06
-7.31963e-08
3.53743e-06
-7.26975e-08
3.56301e-06
-7.21135e-08
3.58835e-06
-7.14421e-08
3.61341e-06
-7.06805e-08
3.63817e-06
-6.98255e-08
3.66259e-06
-6.88733e-08
3.68664e-06
-6.78195e-08
3.71027e-06
-6.66586e-08
3.73344e-06
-6.53846e-08
3.75612e-06
-6.39902e-08
3.77826e-06
-6.24667e-08
3.79981e-06
-6.08042e-08
3.82072e-06
-5.89908e-08
3.84092e-06
-5.70124e-08
3.86037e-06
-5.48525e-08
3.87898e-06
-5.24911e-08
3.89668e-06
-4.99045e-08
3.91338e-06
-4.70642e-08
3.92898e-06
-4.39357e-08
3.94338e-06
-4.04769e-08
3.95645e-06
-3.66362e-08
3.96803e-06
-3.23498e-08
3.97795e-06
-2.75382e-08
3.986e-06
-2.21015e-08
3.99196e-06
-1.59126e-08
3.99551e-06
-8.80821e-09
3.99632e-06
-5.77167e-10
3.99397e-06
9.05923e-09
3.98792e-06
2.04734e-08
3.97757e-06
3.41736e-08
3.96213e-06
5.08559e-08
3.94067e-06
7.14868e-08
3.91212e-06
9.74194e-08
3.87529e-06
1.30554e-07
3.82912e-06
1.73538e-07
3.77318e-06
2.29938e-07
3.70887e-06
3.04207e-07
3.64243e-06
4.00836e-07
3.591e-06
5.20222e-07
6.44128e-07
3.58525e-06
2.8537e-06
-1.02557e-08
2.85889e-06
-1.91581e-08
2.86622e-06
-2.69062e-08
2.87543e-06
-3.37255e-08
2.88633e-06
-3.98294e-08
2.89876e-06
-4.53484e-08
2.91257e-06
-5.03722e-08
2.92765e-06
-5.49712e-08
2.94389e-06
-5.92001e-08
2.96121e-06
-6.31021e-08
2.97952e-06
-6.67123e-08
2.99875e-06
-7.00598e-08
3.01884e-06
-7.31686e-08
3.03972e-06
-7.60588e-08
3.06134e-06
-7.87473e-08
3.08364e-06
-8.12486e-08
3.10659e-06
-8.35747e-08
3.13012e-06
-8.57362e-08
3.15421e-06
-8.77421e-08
3.17881e-06
-8.95998e-08
3.20387e-06
-9.1316e-08
3.22937e-06
-9.28964e-08
3.25526e-06
-9.43458e-08
3.28151e-06
-9.56685e-08
3.30809e-06
-9.68681e-08
3.33496e-06
-9.79476e-08
3.3621e-06
-9.89097e-08
3.38946e-06
-9.97568e-08
3.41702e-06
-1.00491e-07
3.44475e-06
-1.01113e-07
3.47261e-06
-1.01625e-07
3.50058e-06
-1.02028e-07
3.52863e-06
-1.02322e-07
3.55672e-06
-1.02509e-07
3.58483e-06
-1.02587e-07
3.61292e-06
-1.02558e-07
3.64098e-06
-1.0242e-07
3.66896e-06
-1.02174e-07
3.69683e-06
-1.01818e-07
3.72458e-06
-1.0135e-07
3.75216e-06
-1.00771e-07
3.77954e-06
-1.00076e-07
3.8067e-06
-9.92644e-08
3.83359e-06
-9.83323e-08
3.86019e-06
-9.72762e-08
3.88646e-06
-9.60919e-08
3.91237e-06
-9.4774e-08
3.93787e-06
-9.33167e-08
3.96292e-06
-9.17129e-08
3.9875e-06
-8.99543e-08
4.01154e-06
-8.8031e-08
4.03501e-06
-8.59318e-08
4.05785e-06
-8.36433e-08
4.08001e-06
-8.11496e-08
4.10144e-06
-7.84323e-08
4.12206e-06
-7.54693e-08
4.1418e-06
-7.22345e-08
4.1606e-06
-6.86969e-08
4.17835e-06
-6.48192e-08
4.19498e-06
-6.05568e-08
4.21036e-06
-5.58554e-08
4.22437e-06
-5.0649e-08
4.23688e-06
-4.48569e-08
4.24772e-06
-3.83793e-08
4.25672e-06
-3.10921e-08
4.26364e-06
-2.28399e-08
4.26826e-06
-1.34262e-08
4.27029e-06
-2.60165e-09
4.2694e-06
9.95184e-09
4.26522e-06
2.46465e-08
4.25737e-06
4.20248e-08
4.24543e-06
6.27975e-08
4.22902e-06
8.78959e-08
4.20791e-06
1.18535e-07
4.18219e-06
1.56276e-07
4.15267e-06
2.03051e-07
4.12154e-06
2.61068e-07
4.09337e-06
3.32385e-07
4.07652e-06
4.17683e-07
4.08357e-06
5.13174e-07
6.04099e-07
4.1236e-06
3.05346e-06
-1.30338e-08
3.05891e-06
-2.46012e-08
3.06663e-06
-3.46268e-08
3.07637e-06
-4.34634e-08
3.08791e-06
-5.13709e-08
3.10108e-06
-5.85183e-08
3.11574e-06
-6.50227e-08
3.13174e-06
-7.09756e-08
3.149e-06
-7.64479e-08
3.16739e-06
-8.1496e-08
3.18685e-06
-8.61657e-08
3.20729e-06
-9.04944e-08
3.22864e-06
-9.45135e-08
3.25083e-06
-9.8249e-08
3.27382e-06
-1.01723e-07
3.29753e-06
-1.04954e-07
3.32191e-06
-1.07958e-07
3.34693e-06
-1.10748e-07
3.37253e-06
-1.13337e-07
3.39867e-06
-1.15733e-07
3.42531e-06
-1.17946e-07
3.4524e-06
-1.19983e-07
3.47991e-06
-1.2185e-07
3.5078e-06
-1.23553e-07
3.53604e-06
-1.25096e-07
3.56458e-06
-1.26483e-07
3.5934e-06
-1.27719e-07
3.62245e-06
-1.28805e-07
3.65171e-06
-1.29744e-07
3.68114e-06
-1.30539e-07
3.71072e-06
-1.31191e-07
3.7404e-06
-1.31702e-07
3.77015e-06
-1.32072e-07
3.79995e-06
-1.32302e-07
3.82977e-06
-1.32393e-07
3.85956e-06
-1.32344e-07
3.8893e-06
-1.32155e-07
3.91895e-06
-1.31825e-07
3.9485e-06
-1.31353e-07
3.97789e-06
-1.30738e-07
4.0071e-06
-1.29978e-07
4.0361e-06
-1.29069e-07
4.06485e-06
-1.2801e-07
4.09332e-06
-1.26795e-07
4.12147e-06
-1.25421e-07
4.14926e-06
-1.23882e-07
4.17666e-06
-1.22171e-07
4.20363e-06
-1.20281e-07
4.23013e-06
-1.18204e-07
4.25611e-06
-1.15929e-07
4.28152e-06
-1.13444e-07
4.30633e-06
-1.10735e-07
4.33048e-06
-1.07786e-07
4.35391e-06
-1.04577e-07
4.37656e-06
-1.01085e-07
4.39838e-06
-9.72837e-08
4.41929e-06
-9.31418e-08
4.43922e-06
-8.86218e-08
4.45808e-06
-8.36792e-08
4.47579e-06
-7.82609e-08
4.49223e-06
-7.23031e-08
4.50732e-06
-6.57292e-08
4.52091e-06
-5.84463e-08
4.53287e-06
-5.0341e-08
4.54306e-06
-4.12749e-08
4.55129e-06
-3.10774e-08
4.55741e-06
-1.95379e-08
4.5612e-06
-6.39582e-09
4.56249e-06
8.66984e-09
4.56108e-06
2.60554e-08
4.55684e-06
4.62606e-08
4.54974e-06
6.99045e-08
4.53989e-06
9.77437e-08
4.52774e-06
1.30681e-07
4.51427e-06
1.69752e-07
4.50127e-06
2.16044e-07
4.49184e-06
2.70501e-07
4.49075e-06
3.33473e-07
4.50461e-06
4.03827e-07
4.54044e-06
4.77341e-07
5.44423e-07
4.60012e-06
3.26722e-06
-1.58921e-08
3.2729e-06
-3.02864e-08
3.28101e-06
-4.27333e-08
3.29127e-06
-5.37224e-08
3.30346e-06
-6.35572e-08
3.31739e-06
-7.2444e-08
3.3329e-06
-8.05294e-08
3.34985e-06
-8.79272e-08
3.36813e-06
-9.4726e-08
3.38764e-06
-1.00996e-07
3.40827e-06
-1.06794e-07
3.42995e-06
-1.12168e-07
3.4526e-06
-1.17155e-07
3.47614e-06
-1.21789e-07
3.50052e-06
-1.26097e-07
3.52568e-06
-1.30103e-07
3.55155e-06
-1.33826e-07
3.57809e-06
-1.37282e-07
3.60525e-06
-1.40487e-07
3.63297e-06
-1.43453e-07
3.66122e-06
-1.46191e-07
3.68996e-06
-1.48709e-07
3.71913e-06
-1.51015e-07
3.7487e-06
-1.53117e-07
3.77863e-06
-1.5502e-07
3.80888e-06
-1.56729e-07
3.83942e-06
-1.58249e-07
3.87021e-06
-1.59583e-07
3.9012e-06
-1.60735e-07
3.93238e-06
-1.61707e-07
3.96369e-06
-1.62501e-07
3.99512e-06
-1.63119e-07
4.02661e-06
-1.63562e-07
4.05815e-06
-1.63831e-07
4.08969e-06
-1.63927e-07
4.12121e-06
-1.6385e-07
4.15266e-06
-1.63599e-07
4.18401e-06
-1.63173e-07
4.21523e-06
-1.62571e-07
4.24629e-06
-1.61792e-07
4.27716e-06
-1.60833e-07
4.30778e-06
-1.5969e-07
4.33814e-06
-1.5836e-07
4.36819e-06
-1.56839e-07
4.39789e-06
-1.55122e-07
4.42722e-06
-1.53201e-07
4.45612e-06
-1.51069e-07
4.48456e-06
-1.48718e-07
4.5125e-06
-1.46137e-07
4.53989e-06
-1.43314e-07
4.56668e-06
-1.40236e-07
4.59284e-06
-1.36885e-07
4.6183e-06
-1.33242e-07
4.64301e-06
-1.29286e-07
4.66692e-06
-1.2499e-07
4.68996e-06
-1.20324e-07
4.71207e-06
-1.15251e-07
4.73319e-06
-1.09731e-07
4.75322e-06
-1.03712e-07
4.7721e-06
-9.71371e-08
4.78973e-06
-8.9936e-08
4.80603e-06
-8.20259e-08
4.8209e-06
-7.33083e-08
4.83422e-06
-6.36651e-08
4.8459e-06
-5.29547e-08
4.85584e-06
-4.10069e-08
4.86392e-06
-2.76174e-08
4.87006e-06
-1.25415e-08
4.87422e-06
4.51134e-09
4.8764e-06
2.38778e-08
4.87671e-06
4.59555e-08
4.8754e-06
7.12085e-08
4.87299e-06
1.00153e-07
4.87034e-06
1.33337e-07
4.86881e-06
1.71282e-07
4.87047e-06
2.14386e-07
4.87823e-06
2.62739e-07
4.89589e-06
3.15811e-07
4.92774e-06
3.71976e-07
4.97722e-06
4.27861e-07
4.778e-07
5.04384e-06
3.49594e-06
-1.88325e-08
3.50186e-06
-3.62075e-08
3.51035e-06
-5.12204e-08
3.52112e-06
-6.44986e-08
3.53396e-06
-7.63878e-08
3.54864e-06
-8.71297e-08
3.56502e-06
-9.69011e-08
3.58293e-06
-1.05839e-07
3.60226e-06
-1.14051e-07
3.62289e-06
-1.21622e-07
3.64473e-06
-1.28621e-07
3.66767e-06
-1.35105e-07
3.69164e-06
-1.41122e-07
3.71657e-06
-1.4671e-07
3.74238e-06
-1.51903e-07
3.76901e-06
-1.56729e-07
3.7964e-06
-1.61212e-07
3.8245e-06
-1.65373e-07
3.85325e-06
-1.69229e-07
3.8826e-06
-1.72795e-07
3.9125e-06
-1.76084e-07
3.9429e-06
-1.79108e-07
3.97377e-06
-1.81875e-07
4.00506e-06
-1.84394e-07
4.03672e-06
-1.86673e-07
4.06871e-06
-1.88717e-07
4.101e-06
-1.90532e-07
4.13355e-06
-1.92122e-07
4.16631e-06
-1.93491e-07
4.19926e-06
-1.94642e-07
4.23234e-06
-1.95578e-07
4.26553e-06
-1.96302e-07
4.29879e-06
-1.96814e-07
4.33208e-06
-1.97117e-07
4.36537e-06
-1.9721e-07
4.39862e-06
-1.97093e-07
4.4318e-06
-1.96767e-07
4.46486e-06
-1.9623e-07
4.49778e-06
-1.95482e-07
4.53051e-06
-1.9452e-07
4.56303e-06
-1.93341e-07
4.59529e-06
-1.91942e-07
4.62725e-06
-1.90319e-07
4.65888e-06
-1.88466e-07
4.69015e-06
-1.86379e-07
4.721e-06
-1.84049e-07
4.7514e-06
-1.81468e-07
4.78131e-06
-1.78626e-07
4.81069e-06
-1.75511e-07
4.83949e-06
-1.72111e-07
4.86767e-06
-1.68409e-07
4.89518e-06
-1.64387e-07
4.92196e-06
-1.60025e-07
4.94798e-06
-1.55297e-07
4.97317e-06
-1.50175e-07
4.99747e-06
-1.44627e-07
5.02084e-06
-1.38613e-07
5.0432e-06
-1.3209e-07
5.06449e-06
-1.25005e-07
5.08466e-06
-1.17297e-07
5.10362e-06
-1.08895e-07
5.12131e-06
-9.97165e-08
5.13767e-06
-8.96638e-08
5.15263e-06
-7.86235e-08
5.16614e-06
-6.64626e-08
5.17816e-06
-5.30264e-08
5.18868e-06
-3.81357e-08
5.19772e-06
-2.1584e-08
5.20537e-06
-3.13705e-09
5.21179e-06
1.74604e-08
5.21727e-06
4.04726e-08
5.22229e-06
6.6189e-08
5.22756e-06
9.48887e-08
5.23409e-06
1.26807e-07
5.24329e-06
1.62077e-07
5.25703e-06
2.0065e-07
5.2776e-06
2.42171e-07
5.3076e-06
2.85814e-07
5.34949e-06
3.30085e-07
5.4047e-06
3.72645e-07
4.10314e-07
5.47219e-06
3.74067e-06
-2.18586e-08
3.74682e-06
-4.23602e-08
3.75569e-06
-6.00832e-08
3.76698e-06
-7.57873e-08
3.78045e-06
-8.986e-08
3.7959e-06
-1.02576e-07
3.81315e-06
-1.14142e-07
3.83203e-06
-1.24719e-07
3.85242e-06
-1.34435e-07
3.87419e-06
-1.43389e-07
3.89724e-06
-1.51664e-07
3.92146e-06
-1.59327e-07
3.94678e-06
-1.66435e-07
3.97311e-06
-1.73033e-07
4.00038e-06
-1.79163e-07
4.02851e-06
-1.84857e-07
4.05745e-06
-1.90143e-07
4.08713e-06
-1.95047e-07
4.1175e-06
-1.99588e-07
4.1485e-06
-2.03786e-07
4.18007e-06
-2.07654e-07
4.21218e-06
-2.11207e-07
4.24477e-06
-2.14456e-07
4.27779e-06
-2.1741e-07
4.31121e-06
-2.20079e-07
4.34497e-06
-2.2247e-07
4.37903e-06
-2.24588e-07
4.41336e-06
-2.2644e-07
4.44791e-06
-2.2803e-07
4.48264e-06
-2.29362e-07
4.51751e-06
-2.3044e-07
4.55248e-06
-2.31265e-07
4.58751e-06
-2.3184e-07
4.62257e-06
-2.32167e-07
4.65761e-06
-2.32246e-07
4.69261e-06
-2.32078e-07
4.72751e-06
-2.31662e-07
4.76228e-06
-2.30998e-07
4.79689e-06
-2.30084e-07
4.8313e-06
-2.28919e-07
4.86546e-06
-2.27498e-07
4.89935e-06
-2.2582e-07
4.93291e-06
-2.23878e-07
4.96612e-06
-2.21669e-07
4.99893e-06
-2.19184e-07
5.03131e-06
-2.16417e-07
5.0632e-06
-2.13359e-07
5.09458e-06
-2.09998e-07
5.1254e-06
-2.06322e-07
5.15561e-06
-2.02317e-07
5.18517e-06
-1.97966e-07
5.21404e-06
-1.9325e-07
5.24216e-06
-1.88146e-07
5.2695e-06
-1.8263e-07
5.296e-06
-1.76672e-07
5.32161e-06
-1.70238e-07
5.34629e-06
-1.63289e-07
5.36999e-06
-1.5578e-07
5.39264e-06
-1.4766e-07
5.41422e-06
-1.38869e-07
5.43467e-06
-1.29341e-07
5.45395e-06
-1.18998e-07
5.47204e-06
-1.0775e-07
5.48892e-06
-9.54985e-08
5.50459e-06
-8.21286e-08
5.51907e-06
-6.75137e-08
5.53245e-06
-5.15129e-08
5.54484e-06
-3.3973e-08
5.55644e-06
-1.47312e-08
5.56752e-06
6.38049e-09
5.57849e-06
2.95043e-08
5.58992e-06
5.4761e-08
5.60257e-06
8.22375e-08
5.61743e-06
1.11944e-07
5.63574e-06
1.43774e-07
5.65894e-06
1.7745e-07
5.68865e-06
2.1246e-07
5.72646e-06
2.47998e-07
5.77364e-06
2.82906e-07
5.83062e-06
3.15673e-07
3.44556e-07
5.89637e-06
4.00254e-06
-2.49746e-08
4.00892e-06
-4.87414e-08
4.01816e-06
-6.93177e-08
4.02996e-06
-8.75835e-08
4.04407e-06
-1.0397e-07
4.06028e-06
-1.1878e-07
4.07839e-06
-1.32251e-07
4.09825e-06
-1.4457e-07
4.1197e-06
-1.55881e-07
4.14262e-06
-1.66303e-07
4.16689e-06
-1.75932e-07
4.19241e-06
-1.84844e-07
4.21909e-06
-1.93107e-07
4.24684e-06
-2.00775e-07
4.27558e-06
-2.07894e-07
4.30523e-06
-2.14503e-07
4.33573e-06
-2.20636e-07
4.36701e-06
-2.26321e-07
4.39902e-06
-2.31583e-07
4.43168e-06
-2.36442e-07
4.46495e-06
-2.40917e-07
4.49878e-06
-2.45023e-07
4.5331e-06
-2.48773e-07
4.56788e-06
-2.52179e-07
4.60306e-06
-2.55252e-07
4.6386e-06
-2.57999e-07
4.67445e-06
-2.60429e-07
4.71057e-06
-2.62548e-07
4.74691e-06
-2.64361e-07
4.78343e-06
-2.65873e-07
4.82008e-06
-2.67088e-07
4.85684e-06
-2.68009e-07
4.89364e-06
-2.68639e-07
4.93046e-06
-2.6898e-07
4.96726e-06
-2.69033e-07
5.00399e-06
-2.68798e-07
5.04061e-06
-2.68276e-07
5.07708e-06
-2.67466e-07
5.11337e-06
-2.66367e-07
5.14944e-06
-2.64976e-07
5.18524e-06
-2.63291e-07
5.22073e-06
-2.61309e-07
5.25589e-06
-2.59023e-07
5.29065e-06
-2.5643e-07
5.325e-06
-2.53522e-07
5.35888e-06
-2.50291e-07
5.39225e-06
-2.46728e-07
5.42508e-06
-2.42822e-07
5.45733e-06
-2.3856e-07
5.48894e-06
-2.33927e-07
5.51989e-06
-2.28907e-07
5.55013e-06
-2.2348e-07
5.57961e-06
-2.17624e-07
5.6083e-06
-2.11314e-07
5.63615e-06
-2.04521e-07
5.66313e-06
-1.97211e-07
5.68919e-06
-1.89349e-07
5.71431e-06
-1.80892e-07
5.73844e-06
-1.71793e-07
5.76157e-06
-1.61997e-07
5.78368e-06
-1.51446e-07
5.80476e-06
-1.40073e-07
5.82481e-06
-1.27804e-07
5.84388e-06
-1.14559e-07
5.862e-06
-1.00252e-07
5.87928e-06
-8.47897e-08
5.89585e-06
-6.80778e-08
5.9119e-06
-5.00213e-08
5.9277e-06
-3.05298e-08
5.9436e-06
-9.52144e-09
5.96005e-06
1.3057e-08
5.97761e-06
3.71985e-08
5.997e-06
6.28494e-08
6.01906e-06
8.98862e-08
6.04475e-06
1.18085e-07
6.07511e-06
1.47092e-07
6.11116e-06
1.76409e-07
6.15379e-06
2.05368e-07
6.20355e-06
2.3315e-07
6.2604e-06
2.58816e-07
2.81422e-07
6.32354e-06
4.28275e-06
-2.81846e-08
4.28936e-06
-5.53491e-08
4.29896e-06
-7.892e-08
4.31126e-06
-9.98815e-08
4.32601e-06
-1.1871e-07
4.34297e-06
-1.35737e-07
4.36194e-06
-1.51226e-07
4.38277e-06
-1.65388e-07
4.40528e-06
-1.7839e-07
4.42935e-06
-1.90367e-07
4.45485e-06
-2.01427e-07
4.48167e-06
-2.11661e-07
4.50972e-06
-2.21144e-07
4.53889e-06
-2.29941e-07
4.56911e-06
-2.38103e-07
4.60029e-06
-2.45676e-07
4.63236e-06
-2.52699e-07
4.66525e-06
-2.59204e-07
4.69889e-06
-2.6522e-07
4.73323e-06
-2.70771e-07
4.7682e-06
-2.75879e-07
4.80375e-06
-2.8056e-07
4.83981e-06
-2.8483e-07
4.87635e-06
-2.88704e-07
4.9133e-06
-2.92192e-07
4.95061e-06
-2.95305e-07
4.98824e-06
-2.98052e-07
5.02615e-06
-3.0044e-07
5.06427e-06
-3.02476e-07
5.10257e-06
-3.04165e-07
5.14101e-06
-3.05513e-07
5.17953e-06
-3.06522e-07
5.2181e-06
-3.07197e-07
5.25667e-06
-3.0754e-07
5.29519e-06
-3.07552e-07
5.33364e-06
-3.07234e-07
5.37196e-06
-3.06587e-07
5.41011e-06
-3.05611e-07
5.44806e-06
-3.04305e-07
5.48576e-06
-3.02666e-07
5.52317e-06
-3.00693e-07
5.56025e-06
-2.98381e-07
5.59696e-06
-2.95727e-07
5.63326e-06
-2.92725e-07
5.66911e-06
-2.89367e-07
5.70447e-06
-2.85648e-07
5.73931e-06
-2.81556e-07
5.77357e-06
-2.77082e-07
5.80723e-06
-2.72214e-07
5.84025e-06
-2.66936e-07
5.87258e-06
-2.61234e-07
5.90419e-06
-2.55087e-07
5.93505e-06
-2.48477e-07
5.96512e-06
-2.41378e-07
5.99437e-06
-2.33765e-07
6.02277e-06
-2.25608e-07
6.05029e-06
-2.16873e-07
6.07693e-06
-2.07525e-07
6.10266e-06
-1.97523e-07
6.12749e-06
-1.86823e-07
6.15143e-06
-1.75377e-07
6.17449e-06
-1.63133e-07
6.19673e-06
-1.50039e-07
6.21821e-06
-1.36037e-07
6.23903e-06
-1.21071e-07
6.25933e-06
-1.05087e-07
6.27929e-06
-8.80363e-08
6.29915e-06
-6.98777e-08
6.3192e-06
-5.05856e-08
6.33984e-06
-3.01526e-08
6.36149e-06
-8.59257e-09
6.38466e-06
1.40283e-08
6.40994e-06
3.75735e-08
6.43798e-06
6.18461e-08
6.46947e-06
8.65906e-08
6.5051e-06
1.11468e-07
6.54545e-06
1.36057e-07
6.59096e-06
1.5986e-07
6.64178e-06
1.82323e-07
6.69772e-06
2.02881e-07
2.21022e-07
6.75812e-06
4.58258e-06
-3.14921e-08
4.58941e-06
-6.21813e-08
4.59938e-06
-8.88856e-08
4.61218e-06
-1.12675e-07
4.62754e-06
-1.34073e-07
4.64525e-06
-1.53437e-07
4.66508e-06
-1.71055e-07
4.68686e-06
-1.87165e-07
4.71043e-06
-2.01953e-07
4.73564e-06
-2.15571e-07
4.76236e-06
-2.28143e-07
4.79048e-06
-2.39771e-07
4.81988e-06
-2.50541e-07
4.85048e-06
-2.60525e-07
4.88217e-06
-2.69784e-07
4.91487e-06
-2.78369e-07
4.9485e-06
-2.86325e-07
4.983e-06
-2.93689e-07
5.01828e-06
-3.00494e-07
5.05428e-06
-3.06766e-07
5.09095e-06
-3.12531e-07
5.1282e-06
-3.17808e-07
5.166e-06
-3.22616e-07
5.20428e-06
-3.26971e-07
5.24298e-06
-3.30885e-07
5.28206e-06
-3.34372e-07
5.32145e-06
-3.37439e-07
5.36112e-06
-3.40098e-07
5.40101e-06
-3.42355e-07
5.44107e-06
-3.44217e-07
5.48126e-06
-3.4569e-07
5.52153e-06
-3.46778e-07
5.56182e-06
-3.47485e-07
5.60211e-06
-3.47815e-07
5.64234e-06
-3.4777e-07
5.68246e-06
-3.47351e-07
5.72244e-06
-3.4656e-07
5.76224e-06
-3.45397e-07
5.8018e-06
-3.43861e-07
5.8411e-06
-3.41951e-07
5.88008e-06
-3.39664e-07
5.9187e-06
-3.36999e-07
5.95693e-06
-3.33951e-07
5.99473e-06
-3.30515e-07
6.03206e-06
-3.26685e-07
6.06887e-06
-3.22454e-07
6.10514e-06
-3.17814e-07
6.14082e-06
-3.12755e-07
6.17587e-06
-3.07265e-07
6.21027e-06
-3.01332e-07
6.24399e-06
-2.94942e-07
6.27699e-06
-2.88078e-07
6.30924e-06
-2.80722e-07
6.34072e-06
-2.72853e-07
6.37141e-06
-2.6445e-07
6.40129e-06
-2.55487e-07
6.43036e-06
-2.45938e-07
6.45861e-06
-2.35775e-07
6.48606e-06
-2.24967e-07
6.51272e-06
-2.1348e-07
6.53863e-06
-2.01283e-07
6.56384e-06
-1.88342e-07
6.58843e-06
-1.74624e-07
6.6125e-06
-1.60099e-07
6.63617e-06
-1.44741e-07
6.65961e-06
-1.28531e-07
6.68304e-06
-1.11458e-07
6.70669e-06
-9.35295e-08
6.73088e-06
-7.47664e-08
6.75594e-06
-5.52145e-08
6.78229e-06
-3.49439e-08
6.81037e-06
-1.40478e-08
6.84061e-06
7.33029e-09
6.87348e-06
2.89842e-08
6.90941e-06
5.0655e-08
6.94883e-06
7.20531e-08
6.99203e-06
9.28556e-08
7.03918e-06
1.12709e-07
7.09025e-06
1.31254e-07
7.14498e-06
1.48156e-07
1.63142e-07
7.20286e-06
4.9034e-06
-3.48998e-08
4.91046e-06
-6.92354e-08
4.92078e-06
-9.92079e-08
4.93406e-06
-1.25954e-07
4.95004e-06
-1.50048e-07
4.96847e-06
-1.71867e-07
4.98915e-06
-1.91726e-07
5.01188e-06
-2.09887e-07
5.03648e-06
-2.26556e-07
5.06282e-06
-2.41902e-07
5.09075e-06
-2.56065e-07
5.12014e-06
-2.69159e-07
5.15089e-06
-2.81281e-07
5.18289e-06
-2.92512e-07
5.21603e-06
-3.02921e-07
5.25024e-06
-3.12567e-07
5.28542e-06
-3.21498e-07
5.3215e-06
-3.29757e-07
5.3584e-06
-3.37382e-07
5.39604e-06
-3.44404e-07
5.43437e-06
-3.5085e-07
5.47332e-06
-3.56743e-07
5.51282e-06
-3.62105e-07
5.55281e-06
-3.66953e-07
5.59324e-06
-3.71302e-07
5.63404e-06
-3.75166e-07
5.67517e-06
-3.78557e-07
5.71657e-06
-3.81485e-07
5.75819e-06
-3.83959e-07
5.79997e-06
-3.85987e-07
5.84186e-06
-3.87575e-07
5.88383e-06
-3.8873e-07
5.92581e-06
-3.89456e-07
5.96776e-06
-3.89757e-07
6.00964e-06
-3.89637e-07
6.05139e-06
-3.89098e-07
6.09299e-06
-3.88141e-07
6.13437e-06
-3.86769e-07
6.1755e-06
-3.8498e-07
6.21633e-06
-3.82775e-07
6.25683e-06
-3.80152e-07
6.29695e-06
-3.7711e-07
6.33665e-06
-3.73645e-07
6.37589e-06
-3.69753e-07
6.41465e-06
-3.65429e-07
6.45287e-06
-3.60669e-07
6.49053e-06
-3.55464e-07
6.52759e-06
-3.49807e-07
6.56402e-06
-3.43689e-07
6.59979e-06
-3.37098e-07
6.63488e-06
-3.30025e-07
6.66926e-06
-3.22454e-07
6.70292e-06
-3.14373e-07
6.73584e-06
-3.05766e-07
6.76801e-06
-2.96616e-07
6.79943e-06
-2.86905e-07
6.83011e-06
-2.76614e-07
6.86007e-06
-2.65725e-07
6.88932e-06
-2.54219e-07
6.91792e-06
-2.42076e-07
6.94592e-06
-2.2928e-07
6.9734e-06
-2.15815e-07
7.00045e-06
-2.01669e-07
7.02719e-06
-1.86838e-07
7.05377e-06
-1.7132e-07
7.08037e-06
-1.55127e-07
7.10719e-06
-1.38281e-07
7.13449e-06
-1.20818e-07
7.16251e-06
-1.02793e-07
7.19158e-06
-8.42817e-08
7.22202e-06
-6.53807e-08
7.25419e-06
-4.62102e-08
7.28843e-06
-2.69079e-08
7.32504e-06
-7.63363e-09
7.3643e-06
1.14043e-08
7.40638e-06
2.99722e-08
7.45141e-06
4.78237e-08
7.49941e-06
6.4706e-08
7.55027e-06
8.03988e-08
7.60372e-06
9.47054e-08
1.07484e-07
7.65938e-06
5.24668e-06
-3.84084e-08
5.25396e-06
-7.65071e-08
5.26463e-06
-1.09878e-07
5.27838e-06
-1.39708e-07
5.29496e-06
-1.66617e-07
5.3141e-06
-1.91008e-07
5.3356e-06
-2.13218e-07
5.35925e-06
-2.33529e-07
5.38487e-06
-2.52173e-07
5.41231e-06
-2.69333e-07
5.44141e-06
-2.85165e-07
5.47206e-06
-2.99797e-07
5.50412e-06
-3.13336e-07
5.53749e-06
-3.25872e-07
5.57206e-06
-3.37483e-07
5.60774e-06
-3.48234e-07
5.64443e-06
-3.58181e-07
5.68206e-06
-3.67372e-07
5.72053e-06
-3.75848e-07
5.75978e-06
-3.83645e-07
5.79974e-06
-3.90794e-07
5.84033e-06
-3.97321e-07
5.88149e-06
-4.0325e-07
5.92315e-06
-4.08601e-07
5.96525e-06
-4.13391e-07
6.00773e-06
-4.17636e-07
6.05053e-06
-4.21349e-07
6.0936e-06
-4.24543e-07
6.13688e-06
-4.27228e-07
6.18032e-06
-4.29413e-07
6.22386e-06
-4.31106e-07
6.26746e-06
-4.32314e-07
6.31106e-06
-4.33043e-07
6.35461e-06
-4.33298e-07
6.39807e-06
-4.33083e-07
6.44138e-06
-4.32403e-07
6.48451e-06
-4.3126e-07
6.52741e-06
-4.29655e-07
6.57003e-06
-4.27591e-07
6.61233e-06
-4.25068e-07
6.65428e-06
-4.22086e-07
6.69582e-06
-4.18644e-07
6.73693e-06
-4.14741e-07
6.77756e-06
-4.10374e-07
6.81768e-06
-4.05541e-07
6.85725e-06
-4.00237e-07
6.89626e-06
-3.94458e-07
6.93465e-06
-3.88198e-07
6.97242e-06
-3.8145e-07
7.00954e-06
-3.74209e-07
7.04599e-06
-3.66465e-07
7.08175e-06
-3.58211e-07
7.11682e-06
-3.49437e-07
7.1512e-06
-3.40134e-07
7.18488e-06
-3.30291e-07
7.21788e-06
-3.199e-07
7.25022e-06
-3.08951e-07
7.28193e-06
-2.97435e-07
7.31306e-06
-2.85345e-07
7.34367e-06
-2.72677e-07
7.37382e-06
-2.59429e-07
7.40362e-06
-2.45603e-07
7.43316e-06
-2.31206e-07
7.46257e-06
-2.16252e-07
7.49202e-06
-2.00763e-07
7.52167e-06
-1.84772e-07
7.55171e-06
-1.68321e-07
7.58236e-06
-1.51467e-07
7.61385e-06
-1.34281e-07
7.64642e-06
-1.1685e-07
7.68032e-06
-9.92776e-08
7.7158e-06
-8.1683e-08
7.75309e-06
-6.41994e-08
7.79243e-06
-4.69713e-08
7.83397e-06
-3.01413e-08
7.87781e-06
-1.38636e-08
7.92394e-06
1.69779e-09
7.97227e-06
1.63704e-08
8.02266e-06
3.00097e-08
8.07487e-06
4.24977e-08
5.37609e-08
8.1286e-06
5.614e-06
-4.2017e-08
5.62148e-06
-8.39902e-08
5.63249e-06
-1.20884e-07
5.6467e-06
-1.53918e-07
5.66385e-06
-1.83759e-07
5.68368e-06
-2.10834e-07
5.70596e-06
-2.35499e-07
5.7305e-06
-2.58061e-07
5.7571e-06
-2.78769e-07
5.7856e-06
-2.97827e-07
5.81585e-06
-3.15404e-07
5.8477e-06
-3.31642e-07
5.88104e-06
-3.46659e-07
5.91573e-06
-3.60556e-07
5.95168e-06
-3.73419e-07
5.98877e-06
-3.8532e-07
6.02692e-06
-3.96322e-07
6.06604e-06
-4.06477e-07
6.10604e-06
-4.15833e-07
6.14683e-06
-4.2443e-07
6.18835e-06
-4.32301e-07
6.23052e-06
-4.39477e-07
6.27326e-06
-4.45983e-07
6.31652e-06
-4.51844e-07
6.36022e-06
-4.57079e-07
6.4043e-06
-4.61705e-07
6.4487e-06
-4.65738e-07
6.49337e-06
-4.69192e-07
6.53823e-06
-4.7208e-07
6.58324e-06
-4.7441e-07
6.62834e-06
-4.76194e-07
6.67348e-06
-4.7744e-07
6.7186e-06
-4.78154e-07
6.76366e-06
-4.78344e-07
6.80861e-06
-4.78015e-07
6.85339e-06
-4.77173e-07
6.89796e-06
-4.7582e-07
6.94228e-06
-4.73962e-07
6.9863e-06
-4.716e-07
7.02998e-06
-4.68737e-07
7.07328e-06
-4.65375e-07
7.11616e-06
-4.61515e-07
7.15858e-06
-4.57156e-07
7.20052e-06
-4.523e-07
7.24193e-06
-4.46944e-07
7.28279e-06
-4.41089e-07
7.32307e-06
-4.34731e-07
7.36275e-06
-4.2787e-07
7.40181e-06
-4.20501e-07
7.44024e-06
-4.12624e-07
7.47801e-06
-4.04233e-07
7.51513e-06
-3.95326e-07
7.55161e-06
-3.85901e-07
7.58743e-06
-3.75954e-07
7.62263e-06
-3.65483e-07
7.65722e-06
-3.54487e-07
7.69125e-06
-3.42967e-07
7.72474e-06
-3.30925e-07
7.75777e-06
-3.18366e-07
7.79039e-06
-3.05298e-07
7.8227e-06
-2.91732e-07
7.85479e-06
-2.77687e-07
7.88677e-06
-2.63183e-07
7.91877e-06
-2.48251e-07
7.95094e-06
-2.32927e-07
7.98343e-06
-2.17258e-07
8.01641e-06
-2.01297e-07
8.05006e-06
-1.85112e-07
8.08455e-06
-1.68777e-07
8.12009e-06
-1.52379e-07
8.15683e-06
-1.36016e-07
8.19494e-06
-1.19792e-07
8.23456e-06
-1.0382e-07
8.27581e-06
-8.82181e-08
8.31877e-06
-7.3103e-08
8.3635e-06
-5.85912e-08
8.40999e-06
-4.47893e-08
8.45814e-06
-3.17798e-08
8.5078e-06
-1.96484e-08
8.55876e-06
-8.45809e-09
1.76081e-09
8.61076e-06
6.00702e-06
-4.57223e-08
6.01471e-06
-9.16749e-08
6.02603e-06
-1.32207e-07
6.04068e-06
-1.68561e-07
6.05837e-06
-2.01445e-07
6.07885e-06
-2.31309e-07
6.10188e-06
-2.5853e-07
6.12726e-06
-2.83435e-07
6.1548e-06
-3.06294e-07
6.18431e-06
-3.2733e-07
6.21564e-06
-3.46725e-07
6.24864e-06
-3.64634e-07
6.28318e-06
-3.81189e-07
6.31913e-06
-3.965e-07
6.35638e-06
-4.10661e-07
6.39483e-06
-4.23752e-07
6.43436e-06
-4.35844e-07
6.47489e-06
-4.46995e-07
6.51632e-06
-4.57256e-07
6.55858e-06
-4.66672e-07
6.60157e-06
-4.75281e-07
6.64522e-06
-4.83117e-07
6.68946e-06
-4.9021e-07
6.73422e-06
-4.96585e-07
6.77942e-06
-5.02265e-07
6.825e-06
-5.0727e-07
6.87089e-06
-5.11618e-07
6.91704e-06
-5.15323e-07
6.96337e-06
-5.18402e-07
7.00984e-06
-5.20865e-07
7.05638e-06
-5.22725e-07
7.10295e-06
-5.2399e-07
7.14948e-06
-5.24672e-07
7.19592e-06
-5.24777e-07
7.24224e-06
-5.24313e-07
7.28836e-06
-5.23286e-07
7.33426e-06
-5.21703e-07
7.37988e-06
-5.19569e-07
7.42518e-06
-5.16889e-07
7.47012e-06
-5.13667e-07
7.51466e-06
-5.09906e-07
7.55877e-06
-5.05611e-07
7.60241e-06
-5.00783e-07
7.64555e-06
-4.95426e-07
7.68815e-06
-4.89542e-07