/*--------------------------------*- C++ -*----------------------------------*\
| =========                 |                                                 |
| \\      /  F ield         | OpenFOAM: The Open Source CFD Toolbox           |
|  \\    /   O peration     | Version:  2112                                  |
|   \\  /    A nd           | Website:  www.openfoam.com                      |
|    \\/     M anipulation  |                                                 |
\*---------------------------------------------------------------------------*/
FoamFile
{
    version     2.0;
    format      ascii;
    arch        "LSB;label=32;scalar=64";
    class       volScalarField;
    location    "6";
    object      T;
}
// * * * * * * * * * * * * * * * * * * * * * * * * * * * * * * * * * * * * * //

dimensions      [0 0 0 1 0 0 0];

internalField   nonuniform List<scalar> 
12013
(
300.003
300.01
300.017
300.024
300.031
300.039
300.047
300.055
300.064
300.073
300.083
300.092
300.102
300.113
300.124
300.135
300.147
300.159
300.172
300.185
300.199
300.213
300.228
300.243
300.258
300.274
300.291
300.308
300.326
300.344
300.363
300.382
300.402
300.423
300.444
300.466
300.489
300.512
300.536
300.561
300.586
300.612
300.639
300.666
300.695
300.724
300.754
300.785
300.816
300.849
300.882
300.916
300.952
300.988
301.025
301.063
301.103
301.143
301.185
301.227
301.272
301.317
301.364
301.412
301.461
301.513
301.566
301.62
301.677
301.736
301.797
301.86
301.926
301.996
302.068
302.145
302.227
302.315
302.41
302.517
302.64
300.003
300.01
300.017
300.024
300.031
300.039
300.047
300.055
300.064
300.073
300.082
300.092
300.102
300.113
300.124
300.135
300.147
300.159
300.172
300.185
300.199
300.213
300.228
300.243
300.258
300.274
300.291
300.308
300.326
300.344
300.363
300.382
300.402
300.423
300.444
300.466
300.489
300.512
300.536
300.561
300.586
300.612
300.639
300.666
300.695
300.724
300.754
300.784
300.816
300.848
300.882
300.916
300.951
300.988
301.025
301.063
301.102
301.143
301.184
301.227
301.271
301.316
301.363
301.411
301.461
301.512
301.565
301.619
301.676
301.734
301.795
301.858
301.924
301.993
302.065
302.142
302.222
302.308
302.401
302.501
302.611
300.003
300.01
300.017
300.024
300.031
300.039
300.047
300.055
300.064
300.073
300.082
300.092
300.102
300.113
300.124
300.135
300.147
300.159
300.172
300.185
300.199
300.213
300.228
300.243
300.258
300.274
300.291
300.308
300.326
300.344
300.363
300.382
300.402
300.423
300.444
300.466
300.489
300.512
300.536
300.561
300.586
300.612
300.639
300.666
300.694
300.724
300.753
300.784
300.816
300.848
300.882
300.916
300.951
300.987
301.024
301.062
301.102
301.142
301.184
301.226
301.27
301.315
301.362
301.41
301.459
301.51
301.563
301.617
301.673
301.732
301.792
301.855
301.92
301.988
302.059
302.134
302.212
302.295
302.383
302.475
302.572
300.003
300.01
300.017
300.024
300.031
300.039
300.047
300.055
300.064
300.073
300.082
300.092
300.102
300.113
300.124
300.135
300.147
300.159
300.172
300.185
300.199
300.213
300.227
300.243
300.258
300.274
300.291
300.308
300.326
300.344
300.363
300.382
300.402
300.423
300.444
300.466
300.489
300.512
300.536
300.56
300.586
300.612
300.638
300.666
300.694
300.723
300.753
300.784
300.815
300.848
300.881
300.915
300.95
300.986
301.024
301.062
301.101
301.141
301.182
301.225
301.269
301.314
301.36
301.408
301.457
301.508
301.56
301.614
301.67
301.727
301.787
301.849
301.913
301.98
302.049
302.121
302.197
302.276
302.358
302.442
302.529
300.003
300.01
300.017
300.024
300.031
300.039
300.047
300.055
300.064
300.073
300.082
300.092
300.102
300.113
300.124
300.135
300.147
300.159
300.172
300.185
300.199
300.213
300.227
300.243
300.258
300.274
300.291
300.308
300.326
300.344
300.363
300.382
300.402
300.423
300.444
300.466
300.488
300.512
300.536
300.56
300.585
300.611
300.638
300.666
300.694
300.723
300.753
300.783
300.815
300.847
300.88
300.914
300.949
300.985
301.022
301.06
301.099
301.139
301.181
301.223
301.267
301.311
301.357
301.405
301.454
301.504
301.556
301.609
301.664
301.721
301.78
301.84
301.903
301.968
302.035
302.105
302.177
302.251
302.327
302.405
302.483
300.003
300.01
300.017
300.024
300.031
300.039
300.047
300.055
300.064
300.073
300.082
300.092
300.102
300.113
300.124
300.135
300.147
300.159
300.172
300.185
300.199
300.213
300.227
300.242
300.258
300.274
300.291
300.308
300.325
300.344
300.363
300.382
300.402
300.423
300.444
300.466
300.488
300.511
300.535
300.56
300.585
300.611
300.638
300.665
300.693
300.722
300.752
300.782
300.814
300.846
300.879
300.913
300.948
300.984
301.021
301.059
301.097
301.137
301.178
301.22
301.264
301.308
301.354
301.401
301.449
301.499
301.55
301.602
301.657
301.712
301.77
301.829
301.89
301.953
302.017
302.084
302.152
302.221
302.292
302.363
302.434
300.003
300.01
300.017
300.024
300.031
300.039
300.047
300.055
300.064
300.073
300.082
300.092
300.102
300.113
300.124
300.135
300.147
300.159
300.172
300.185
300.199
300.213
300.227
300.242
300.258
300.274
300.291
300.308
300.325
300.344
300.362
300.382
300.402
300.422
300.443
300.465
300.488
300.511
300.535
300.559
300.584
300.61
300.637
300.664
300.692
300.721
300.751
300.781
300.813
300.845
300.878
300.912
300.946
300.982
301.019
301.056
301.095
301.134
301.175
301.217
301.26
301.304
301.349
301.395
301.443
301.492
301.542
301.594
301.647
301.701
301.757
301.815
301.874
301.934
301.996
302.059
302.123
302.188
302.254
302.319
302.384
300.003
300.01
300.017
300.024
300.031
300.039
300.047
300.055
300.064
300.073
300.082
300.092
300.102
300.113
300.124
300.135
300.147
300.159
300.172
300.185
300.199
300.213
300.227
300.242
300.258
300.274
300.29
300.307
300.325
300.343
300.362
300.381
300.401
300.422
300.443
300.465
300.487
300.51
300.534
300.559
300.584
300.609
300.636
300.663
300.691
300.72
300.75
300.78
300.811
300.843
300.876
300.91
300.944
300.98
301.016
301.053
301.092
301.131
301.171
301.212
301.255
301.298
301.343
301.389
301.435
301.483
301.533
301.583
301.635
301.688
301.742
301.798
301.854
301.912
301.971
302.03
302.091
302.151
302.212
302.273
302.333
300.003
300.01
300.017
300.024
300.031
300.039
300.047
300.055
300.064
300.073
300.082
300.092
300.102
300.113
300.124
300.135
300.147
300.159
300.172
300.185
300.198
300.212
300.227
300.242
300.258
300.274
300.29
300.307
300.325
300.343
300.362
300.381
300.401
300.421
300.443
300.464
300.487
300.51
300.533
300.558
300.583
300.608
300.635
300.662
300.69
300.719
300.748
300.778
300.809
300.841
300.874
300.907
300.941
300.976
301.013
301.05
301.087
301.126
301.166
301.207
301.249
301.291
301.335
301.38
301.426
301.473
301.521
301.57
301.621
301.672
301.724
301.777
301.832
301.887
301.942
301.998
302.055
302.112
302.168
302.225
302.28
300.003
300.01
300.017
300.024
300.031
300.039
300.047
300.055
300.064
300.073
300.082
300.092
300.102
300.113
300.124
300.135
300.147
300.159
300.172
300.185
300.198
300.212
300.227
300.242
300.257
300.273
300.29
300.307
300.324
300.343
300.361
300.381
300.4
300.421
300.442
300.464
300.486
300.509
300.532
300.557
300.582
300.607
300.634
300.661
300.688
300.717
300.746
300.776
300.807
300.838
300.871
300.904
300.938
300.973
301.008
301.045
301.082
301.121
301.16
301.2
301.241
301.283
301.326
301.37
301.415
301.461
301.507
301.555
301.604
301.653
301.703
301.754
301.806
301.858
301.911
301.964
302.017
302.07
302.122
302.175
302.226
300.003
300.01
300.017
300.024
300.031
300.039
300.047
300.055
300.064
300.073
300.082
300.092
300.102
300.113
300.124
300.135
300.147
300.159
300.171
300.185
300.198
300.212
300.227
300.241
300.257
300.273
300.289
300.306
300.324
300.342
300.361
300.38
300.4
300.42
300.441
300.463
300.485
300.508
300.531
300.555
300.58
300.606
300.632
300.659
300.686
300.715
300.744
300.773
300.804
300.835
300.867
300.9
300.934
300.968
301.003
301.039
301.076
301.114
301.153
301.192
301.232
301.273
301.315
301.358
301.402
301.446
301.492
301.538
301.584
301.632
301.68
301.728
301.777
301.827
301.876
301.926
301.976
302.025
302.074
302.123
302.171
300.003
300.01
300.017
300.024
300.031
300.039
300.047
300.055
300.064
300.073
300.082
300.092
300.102
300.113
300.123
300.135
300.146
300.159
300.171
300.184
300.198
300.212
300.226
300.241
300.257
300.273
300.289
300.306
300.323
300.341
300.36
300.379
300.399
300.419
300.44
300.462
300.484
300.507
300.53
300.554
300.579
300.604
300.63
300.657
300.684
300.712
300.741
300.77
300.8
300.831
300.863
300.895
300.929
300.963
300.997
301.033
301.069
301.106
301.144
301.182
301.222
301.262
301.303
301.344
301.387
301.43
301.473
301.518
301.562
301.608
301.654
301.7
301.746
301.793
301.839
301.886
301.933
301.979
302.025
302.07
302.114
300.003
300.01
300.017
300.024
300.031
300.039
300.047
300.055
300.064
300.073
300.082
300.092
300.102
300.112
300.123
300.135
300.146
300.158
300.171
300.184
300.198
300.211
300.226
300.241
300.256
300.272
300.288
300.305
300.323
300.341
300.359
300.378
300.398
300.418
300.439
300.46
300.482
300.505
300.528
300.552
300.577
300.602
300.627
300.654
300.681
300.709
300.737
300.766
300.796
300.827
300.858
300.89
300.923
300.956
300.99
301.025
301.06
301.097
301.134
301.171
301.21
301.249
301.288
301.328
301.369
301.411
301.453
301.495
301.538
301.581
301.625
301.668
301.712
301.756
301.8
301.844
301.887
301.931
301.973
302.016
302.057
300.003
300.01
300.017
300.024
300.031
300.039
300.047
300.055
300.064
300.073
300.082
300.092
300.102
300.112
300.123
300.134
300.146
300.158
300.171
300.184
300.197
300.211
300.225
300.24
300.256
300.271
300.288
300.305
300.322
300.34
300.358
300.377
300.397
300.417
300.438
300.459
300.481
300.503
300.526
300.55
300.574
300.599
300.625
300.651
300.678
300.705
300.733
300.762
300.791
300.821
300.852
300.884
300.916
300.948
300.982
301.016
301.051
301.086
301.122
301.159
301.196
301.233
301.272
301.311
301.35
301.39
301.43
301.47
301.511
301.552
301.593
301.635
301.676
301.718
301.759
301.8
301.841
301.881
301.921
301.96
301.999
300.003
300.01
300.016
300.024
300.031
300.039
300.047
300.055
300.063
300.072
300.082
300.091
300.102
300.112
300.123
300.134
300.146
300.158
300.17
300.183
300.197
300.211
300.225
300.24
300.255
300.271
300.287
300.304
300.321
300.339
300.357
300.376
300.395
300.415
300.436
300.457
300.479
300.501
300.524
300.547
300.571
300.596
300.621
300.647
300.674
300.701
300.728
300.757
300.786
300.815
300.845
300.876
300.908
300.94
300.972
301.005
301.039
301.074
301.109
301.144
301.18
301.216
301.253
301.291
301.328
301.366
301.405
301.443
301.482
301.521
301.56
301.599
301.638
301.677
301.715
301.754
301.792
301.83
301.867
301.904
301.94
300.003
300.01
300.016
300.023
300.031
300.038
300.046
300.055
300.063
300.072
300.082
300.091
300.101
300.112
300.123
300.134
300.145
300.157
300.17
300.183
300.196
300.21
300.224
300.239
300.254
300.27
300.286
300.303
300.32
300.338
300.356
300.375
300.394
300.414
300.434
300.455
300.476
300.498
300.521
300.544
300.568
300.592
300.617
300.643
300.669
300.695
300.723
300.751
300.779
300.808
300.838
300.868
300.898
300.93
300.961
300.994
301.026
301.06
301.094
301.128
301.162
301.197
301.233
301.269
301.305
301.341
301.377
301.414
301.451
301.488
301.524
301.561
301.598
301.634
301.67
301.706
301.742
301.777
301.812
301.846
301.88
300.003
300.01
300.016
300.023
300.031
300.038
300.046
300.055
300.063
300.072
300.081
300.091
300.101
300.111
300.122
300.133
300.145
300.157
300.169
300.182
300.196
300.209
300.224
300.238
300.253
300.269
300.285
300.302
300.319
300.336
300.354
300.373
300.392
300.412
300.432
300.452
300.474
300.495
300.518
300.541
300.564
300.588
300.613
300.638
300.663
300.69
300.716
300.744
300.771
300.8
300.829
300.858
300.888
300.918
300.949
300.98
301.012
301.044
301.077
301.11
301.143
301.177
301.21
301.245
301.279
301.313
301.348
301.383
301.417
301.452
301.487
301.521
301.556
301.59
301.624
301.658
301.691
301.724
301.756
301.788
301.82
300.003
300.01
300.016
300.023
300.031
300.038
300.046
300.054
300.063
300.072
300.081
300.091
300.101
300.111
300.122
300.133
300.145
300.156
300.169
300.182
300.195
300.209
300.223
300.237
300.252
300.268
300.284
300.3
300.317
300.334
300.352
300.371
300.39
300.409
300.429
300.45
300.471
300.492
300.514
300.537
300.56
300.583
300.607
300.632
300.657
300.683
300.709
300.736
300.763
300.79
300.818
300.847
300.876
300.905
300.935
300.966
300.996
301.027
301.058
301.09
301.122
301.154
301.186
301.219
301.251
301.284
301.317
301.35
301.382
301.415
301.448
301.48
301.512
301.544
301.576
301.608
301.639
301.67
301.7
301.73
301.759
300.003
300.01
300.016
300.023
300.031
300.038
300.046
300.054
300.063
300.072
300.081
300.09
300.1
300.111
300.121
300.133
300.144
300.156
300.168
300.181
300.194
300.208
300.222
300.236
300.251
300.266
300.282
300.298
300.315
300.332
300.35
300.368
300.387
300.406
300.426
300.446
300.467
300.488
300.51
300.532
300.555
300.578
300.601
300.625
300.65
300.675
300.701
300.727
300.753
300.78
300.807
300.835
300.863
300.891
300.92
300.949
300.979
301.008
301.038
301.068
301.099
301.129
301.16
301.191
301.222
301.253
301.284
301.315
301.346
301.376
301.407
301.437
301.468
301.498
301.527
301.557
301.586
301.615
301.643
301.671
301.698
300.003
300.01
300.016
300.023
300.03
300.038
300.046
300.054
300.063
300.071
300.081
300.09
300.1
300.11
300.121
300.132
300.143
300.155
300.167
300.18
300.193
300.207
300.22
300.235
300.25
300.265
300.28
300.297
300.313
300.33
300.348
300.366
300.384
300.403
300.423
300.442
300.463
300.484
300.505
300.527
300.549
300.571
300.594
300.618
300.642
300.666
300.691
300.717
300.742
300.768
300.795
300.821
300.848
300.876
300.903
300.931
300.96
300.988
301.017
301.045
301.074
301.103
301.132
301.162
301.191
301.22
301.249
301.278
301.307
301.336
301.365
301.393
301.422
301.45
301.478
301.505
301.532
301.559
301.586
301.612
301.637
300.003
300.01
300.016
300.023
300.03
300.038
300.046
300.054
300.062
300.071
300.08
300.09
300.1
300.11
300.12
300.131
300.143
300.154
300.166
300.179
300.192
300.205
300.219
300.233
300.248
300.263
300.278
300.294
300.311
300.328
300.345
300.363
300.381
300.399
300.418
300.438
300.458
300.478
300.499
300.52
300.542
300.564
300.587
300.61
300.633
300.657
300.681
300.705
300.73
300.755
300.781
300.806
300.832
300.859
300.885
300.912
300.939
300.966
300.993
301.021
301.048
301.076
301.103
301.131
301.158
301.186
301.213
301.241
301.268
301.295
301.322
301.349
301.375
301.401
301.427
301.453
301.478
301.503
301.528
301.552
301.576
300.003
300.009
300.016
300.023
300.03
300.038
300.045
300.054
300.062
300.071
300.08
300.089
300.099
300.109
300.12
300.13
300.142
300.153
300.165
300.178
300.191
300.204
300.217
300.232
300.246
300.261
300.276
300.292
300.308
300.325
300.342
300.359
300.377
300.395
300.414
300.433
300.453
300.473
300.493
300.514
300.535
300.556
300.578
300.601
300.623
300.646
300.669
300.693
300.717
300.741
300.766
300.79
300.815
300.84
300.866
300.891
300.917
300.943
300.969
300.995
301.021
301.047
301.073
301.099
301.125
301.15
301.176
301.202
301.227
301.253
301.278
301.303
301.328
301.352
301.376
301.4
301.424
301.447
301.471
301.493
301.516
300.003
300.009
300.016
300.023
300.03
300.037
300.045
300.053
300.062
300.07
300.079
300.089
300.098
300.108
300.119
300.13
300.141
300.152
300.164
300.176
300.189
300.202
300.216
300.23
300.244
300.258
300.274
300.289
300.305
300.321
300.338
300.355
300.373
300.391
300.409
300.428
300.447
300.466
300.486
300.506
300.527
300.548
300.569
300.59
300.612
300.634
300.657
300.68
300.703
300.726
300.749
300.773
300.797
300.821
300.845
300.869
300.894
300.918
300.943
300.967
300.992
301.016
301.041
301.065
301.09
301.114
301.138
301.162
301.186
301.21
301.233
301.257
301.28
301.303
301.325
301.348
301.37
301.392
301.413
301.434
301.455
300.003
300.009
300.016
300.023
300.03
300.037
300.045
300.053
300.061
300.07
300.079
300.088
300.098
300.108
300.118
300.129
300.14
300.151
300.163
300.175
300.187
300.2
300.214
300.227
300.241
300.256
300.271
300.286
300.301
300.317
300.334
300.351
300.368
300.385
300.403
300.421
300.44
300.459
300.478
300.498
300.518
300.538
300.559
300.579
300.6
300.622
300.643
300.665
300.687
300.71
300.732
300.755
300.777
300.8
300.823
300.846
300.869
300.892
300.916
300.939
300.962
300.985
301.008
301.031
301.054
301.077
301.099
301.122
301.144
301.166
301.188
301.21
301.232
301.253
301.274
301.295
301.316
301.336
301.356
301.376
301.395
300.003
300.009
300.016
300.023
300.03
300.037
300.045
300.052
300.061
300.069
300.078
300.087
300.097
300.107
300.117
300.127
300.138
300.15
300.161
300.173
300.186
300.198
300.211
300.225
300.239
300.253
300.267
300.282
300.298
300.313
300.329
300.346
300.362
300.379
300.397
300.415
300.433
300.451
300.47
300.489
300.508
300.528
300.547
300.567
300.588
300.608
300.629
300.65
300.671
300.692
300.714
300.735
300.757
300.778
300.8
300.822
300.844
300.866
300.887
300.909
300.931
300.953
300.975
300.996
301.018
301.039
301.06
301.081
301.102
301.123
301.143
301.164
301.184
301.204
301.223
301.243
301.262
301.281
301.3
301.318
301.336
300.003
300.009
300.016
300.022
300.029
300.037
300.044
300.052
300.06
300.069
300.077
300.086
300.096
300.106
300.116
300.126
300.137
300.148
300.159
300.171
300.183
300.196
300.209
300.222
300.236
300.249
300.264
300.278
300.293
300.309
300.324
300.34
300.357
300.373
300.39
300.407
300.425
300.443
300.461
300.479
300.498
300.516
300.535
300.555
300.574
300.594
300.614
300.634
300.654
300.674
300.694
300.715
300.735
300.756
300.776
300.797
300.817
300.838
300.859
300.879
300.9
300.92
300.94
300.961
300.981
301.001
301.021
301.04
301.06
301.079
301.098
301.117
301.136
301.155
301.173
301.191
301.209
301.227
301.244
301.261
301.278
300.003
300.009
300.015
300.022
300.029
300.036
300.044
300.051
300.06
300.068
300.077
300.086
300.095
300.104
300.114
300.125
300.135
300.146
300.157
300.169
300.181
300.193
300.206
300.219
300.232
300.246
300.26
300.274
300.289
300.304
300.319
300.334
300.35
300.366
300.383
300.399
300.416
300.433
300.451
300.468
300.486
300.504
300.523
300.541
300.56
300.578
300.597
300.616
300.636
300.655
300.674
300.693
300.713
300.732
300.752
300.771
300.791
300.81
300.829
300.849
300.868
300.887
300.906
300.925
300.944
300.963
300.981
301
301.018
301.036
301.054
301.071
301.089
301.106
301.123
301.14
301.157
301.173
301.19
301.206
301.221
300.003
300.009
300.015
300.022
300.029
300.036
300.043
300.051
300.059
300.067
300.076
300.084
300.094
300.103
300.113
300.123
300.133
300.144
300.155
300.167
300.178
300.19
300.203
300.215
300.228
300.242
300.255
300.269
300.284
300.298
300.313
300.328
300.343
300.359
300.375
300.391
300.407
300.424
300.44
300.457
300.474
300.492
300.509
300.527
300.545
300.563
300.581
300.599
300.617
300.635
300.653
300.672
300.69
300.708
300.727
300.745
300.763
300.782
300.8
300.818
300.836
300.854
300.872
300.889
300.907
300.925
300.942
300.959
300.976
300.993
301.01
301.026
301.043
301.059
301.075
301.09
301.106
301.121
301.136
301.151
301.166
300.003
300.009
300.015
300.022
300.028
300.035
300.043
300.05
300.058
300.066
300.075
300.083
300.092
300.102
300.111
300.121
300.132
300.142
300.153
300.164
300.176
300.187
300.199
300.212
300.224
300.237
300.251
300.264
300.278
300.292
300.306
300.321
300.336
300.351
300.366
300.382
300.397
300.413
300.429
300.446
300.462
300.479
300.495
300.512
300.529
300.546
300.563
300.58
300.598
300.615
300.632
300.649
300.667
300.684
300.701
300.719
300.736
300.753
300.77
300.787
300.804
300.821
300.838
300.854
300.871
300.887
300.903
300.919
300.935
300.951
300.967
300.982
300.997
301.012
301.027
301.042
301.056
301.071
301.085
301.099
301.112
300.003
300.009
300.015
300.021
300.028
300.035
300.042
300.05
300.057
300.065
300.074
300.082
300.091
300.1
300.11
300.119
300.129
300.14
300.15
300.161
300.173
300.184
300.196
300.208
300.22
300.233
300.246
300.259
300.272
300.286
300.3
300.314
300.328
300.343
300.357
300.372
300.387
300.403
300.418
300.434
300.449
300.465
300.481
300.497
300.513
300.529
300.546
300.562
300.578
300.594
300.611
300.627
300.644
300.66
300.676
300.692
300.709
300.725
300.741
300.757
300.773
300.788
300.804
300.82
300.835
300.85
300.865
300.88
300.895
300.91
300.925
300.939
300.953
300.967
300.981
300.995
301.008
301.022
301.035
301.048
301.061
300.003
300.009
300.015
300.021
300.028
300.034
300.041
300.049
300.056
300.064
300.072
300.081
300.09
300.099
300.108
300.117
300.127
300.137
300.148
300.158
300.169
300.18
300.192
300.204
300.216
300.228
300.24
300.253
300.266
300.279
300.293
300.306
300.32
300.334
300.348
300.362
300.377
300.392
300.406
300.421
300.436
300.451
300.466
300.482
300.497
300.512
300.528
300.543
300.559
300.574
300.59
300.605
300.62
300.636
300.651
300.666
300.682
300.697
300.712
300.727
300.742
300.757
300.771
300.786
300.8
300.814
300.829
300.843
300.857
300.87
300.884
300.897
300.911
300.924
300.937
300.95
300.962
300.975
300.987
300.999
301.011
300.003
300.009
300.014
300.021
300.027
300.034
300.041
300.048
300.055
300.063
300.071
300.079
300.088
300.097
300.106
300.115
300.125
300.135
300.145
300.155
300.166
300.177
300.188
300.199
300.211
300.223
300.235
300.247
300.26
300.272
300.285
300.298
300.312
300.325
300.339
300.353
300.366
300.38
300.394
300.409
300.423
300.437
300.452
300.466
300.481
300.495
300.51
300.525
300.539
300.554
300.569
300.583
300.598
300.612
300.627
300.641
300.655
300.67
300.684
300.698
300.712
300.726
300.739
300.753
300.767
300.78
300.793
300.807
300.82
300.832
300.845
300.858
300.87
300.882
300.895
300.907
300.918
300.93
300.942
300.953
300.964
300.003
300.008
300.014
300.02
300.027
300.033
300.04
300.047
300.054
300.062
300.07
300.078
300.086
300.095
300.104
300.113
300.122
300.132
300.142
300.152
300.162
300.173
300.184
300.195
300.206
300.218
300.229
300.241
300.253
300.266
300.278
300.291
300.303
300.316
300.329
300.343
300.356
300.369
300.383
300.396
300.41
300.424
300.437
300.451
300.465
300.479
300.493
300.507
300.52
300.534
300.548
300.562
300.576
300.589
300.603
300.616
300.63
300.643
300.657
300.67
300.683
300.696
300.709
300.722
300.735
300.747
300.76
300.772
300.784
300.796
300.808
300.82
300.832
300.843
300.855
300.866
300.877
300.888
300.899
300.909
300.92
300.003
300.008
300.014
300.02
300.026
300.033
300.039
300.046
300.053
300.061
300.069
300.076
300.085
300.093
300.102
300.111
300.12
300.129
300.139
300.149
300.159
300.169
300.18
300.19
300.201
300.212
300.224
300.235
300.247
300.259
300.271
300.283
300.295
300.308
300.32
300.333
300.345
300.358
300.371
300.384
300.397
300.41
300.423
300.436
300.45
300.463
300.476
300.489
300.502
300.515
300.528
300.542
300.555
300.567
300.58
300.593
300.606
300.619
300.631
300.644
300.656
300.668
300.681
300.693
300.705
300.716
300.728
300.74
300.751
300.763
300.774
300.785
300.796
300.807
300.817
300.828
300.838
300.849
300.859
300.869
300.879
300.003
300.008
300.014
300.02
300.026
300.032
300.039
300.045
300.052
300.06
300.067
300.075
300.083
300.091
300.1
300.108
300.117
300.126
300.136
300.145
300.155
300.165
300.175
300.186
300.196
300.207
300.218
300.229
300.241
300.252
300.264
300.275
300.287
300.299
300.311
300.323
300.335
300.348
300.36
300.372
300.385
300.397
300.41
300.422
300.435
300.448
300.46
300.473
300.485
300.498
300.51
300.522
300.535
300.547
300.559
300.571
300.583
300.595
300.607
300.619
300.631
300.643
300.654
300.665
300.677
300.688
300.699
300.71
300.721
300.732
300.742
300.753
300.763
300.773
300.783
300.793
300.803
300.813
300.822
300.832
300.841
300.003
300.008
300.013
300.019
300.025
300.031
300.038
300.044
300.051
300.059
300.066
300.073
300.081
300.089
300.098
300.106
300.115
300.124
300.133
300.142
300.152
300.162
300.171
300.182
300.192
300.202
300.213
300.224
300.235
300.246
300.257
300.268
300.28
300.291
300.303
300.314
300.326
300.338
300.35
300.362
300.374
300.385
300.397
300.409
300.421
300.433
300.445
300.457
300.469
300.481
300.493
300.505
300.517
300.528
300.54
300.551
300.563
300.574
300.586
300.597
300.608
300.619
300.63
300.641
300.652
300.662
300.673
300.683
300.693
300.703
300.714
300.723
300.733
300.743
300.752
300.762
300.771
300.78
300.789
300.798
300.807
300.003
300.008
300.013
300.019
300.025
300.031
300.037
300.044
300.05
300.057
300.065
300.072
300.08
300.088
300.096
300.104
300.112
300.121
300.13
300.139
300.149
300.158
300.168
300.178
300.188
300.198
300.208
300.219
300.229
300.24
300.251
300.262
300.273
300.284
300.295
300.306
300.317
300.329
300.34
300.352
300.363
300.375
300.386
300.398
300.409
300.421
300.432
300.444
300.455
300.467
300.478
300.489
300.5
300.512
300.523
300.534
300.545
300.556
300.566
300.577
300.588
300.598
300.609
300.619
300.629
300.639
300.649
300.659
300.669
300.679
300.688
300.698
300.707
300.716
300.725
300.734
300.743
300.752
300.761
300.769
300.778
300.003
300.008
300.013
300.019
300.024
300.03
300.037
300.043
300.05
300.056
300.063
300.071
300.078
300.086
300.094
300.102
300.11
300.119
300.128
300.137
300.146
300.155
300.164
300.174
300.184
300.194
300.204
300.214
300.224
300.235
300.245
300.256
300.267
300.277
300.288
300.299
300.31
300.321
300.332
300.343
300.354
300.365
300.377
300.388
300.399
300.41
300.421
300.432
300.443
300.454
300.465
300.476
300.487
300.498
300.508
300.519
300.529
300.54
300.55
300.561
300.571
300.581
300.591
300.601
300.611
300.62
300.63
300.639
300.649
300.658
300.667
300.676
300.685
300.694
300.703
300.711
300.72
300.728
300.737
300.745
300.753
300.002
300.008
300.013
300.018
300.024
300.03
300.036
300.042
300.049
300.056
300.063
300.07
300.077
300.085
300.093
300.101
300.109
300.117
300.126
300.134
300.143
300.152
300.162
300.171
300.181
300.19
300.2
300.21
300.22
300.23
300.241
300.251
300.262
300.272
300.283
300.293
300.304
300.315
300.326
300.336
300.347
300.358
300.369
300.38
300.39
300.401
300.412
300.423
300.434
300.444
300.455
300.465
300.476
300.486
300.497
300.507
300.517
300.527
300.537
300.547
300.557
300.567
300.577
300.586
300.596
300.605
300.614
300.624
300.633
300.642
300.651
300.659
300.668
300.677
300.685
300.693
300.701
300.71
300.717
300.725
300.733
300.002
300.007
300.013
300.018
300.024
300.03
300.036
300.042
300.048
300.055
300.062
300.069
300.076
300.084
300.091
300.099
300.107
300.116
300.124
300.133
300.142
300.151
300.16
300.169
300.178
300.188
300.198
300.208
300.217
300.227
300.238
300.248
300.258
300.268
300.279
300.289
300.3
300.31
300.321
300.331
300.342
300.353
300.363
300.374
300.385
300.395
300.406
300.416
300.427
300.437
300.448
300.458
300.468
300.478
300.488
300.499
300.509
300.518
300.528
300.538
300.548
300.557
300.567
300.576
300.585
300.595
300.604
300.613
300.621
300.63
300.639
300.647
300.656
300.664
300.672
300.681
300.689
300.696
300.704
300.712
300.719
300.002
300.007
300.013
300.018
300.024
300.029
300.035
300.042
300.048
300.055
300.061
300.069
300.076
300.083
300.091
300.099
300.107
300.115
300.123
300.132
300.141
300.15
300.159
300.168
300.177
300.187
300.196
300.206
300.216
300.226
300.236
300.246
300.256
300.266
300.277
300.287
300.297
300.308
300.318
300.329
300.339
300.35
300.36
300.371
300.381
300.392
300.402
300.413
300.423
300.433
300.444
300.454
300.464
300.474
300.484
300.494
300.504
300.514
300.524
300.533
300.543
300.552
300.561
300.571
300.58
300.589
300.598
300.607
300.616
300.624
300.633
300.641
300.65
300.658
300.666
300.674
300.682
300.69
300.697
300.705
300.712
302.795
302.917
303.019
303.108
303.188
303.26
303.326
303.387
303.443
303.495
303.543
303.587
303.629
303.668
303.704
303.738
303.77
303.8
303.829
303.857
303.884
303.91
303.937
303.964
303.992
304.021
304.049
304.077
304.105
304.133
304.16
304.187
304.214
304.241
304.268
304.294
304.321
304.347
304.373
304.398
304.424
304.45
304.475
304.501
304.526
304.551
304.576
304.601
304.626
304.651
304.676
304.701
304.726
304.751
304.775
304.8
304.824
304.849
304.873
304.897
304.922
304.946
304.97
304.994
305.018
305.042
305.066
305.09
305.114
305.138
305.162
305.186
305.209
305.233
305.257
305.28
305.304
305.327
305.351
305.374
305.398
305.421
305.444
305.467
305.491
305.514
305.537
305.56
305.582
305.605
305.628
305.65
305.673
305.695
305.718
305.74
305.762
305.784
305.806
305.827
305.849
305.87
305.891
305.912
305.933
305.953
305.974
305.994
306.014
306.033
306.053
306.072
306.09
306.109
306.127
306.144
306.162
306.178
306.195
306.211
306.226
306.241
306.256
306.269
306.283
306.295
306.307
306.318
306.329
306.338
306.347
306.355
306.362
306.367
306.372
306.375
306.378
306.379
306.378
306.376
306.372
306.366
306.359
306.349
306.337
306.322
306.305
306.285
306.262
306.235
306.204
306.169
306.13
306.084
306.033
305.975
305.915
305.845
305.747
305.604
305.386
302.729
302.838
302.935
303.023
303.102
303.175
303.241
303.303
303.36
303.413
303.462
303.509
303.552
303.592
303.63
303.666
303.699
303.732
303.762
303.792
303.82
303.849
303.877
303.905
303.934
303.962
303.991
304.02
304.048
304.076
304.104
304.132
304.159
304.186
304.214
304.24
304.267
304.294
304.32
304.346
304.372
304.398
304.424
304.45
304.475
304.501
304.526
304.552
304.577
304.602
304.627
304.652
304.677
304.702
304.727
304.752
304.776
304.801
304.826
304.85
304.875
304.899
304.924
304.948
304.972
304.997
305.021
305.045
305.069
305.093
305.117
305.141
305.165
305.189
305.213
305.237
305.261
305.284
305.308
305.332
305.355
305.379
305.402
305.426
305.449
305.472
305.496
305.519
305.542
305.565
305.588
305.611
305.633
305.656
305.678
305.701
305.723
305.745
305.767
305.789
305.811
305.832
305.854
305.875
305.896
305.916
305.937
305.957
305.977
305.997
306.017
306.036
306.055
306.073
306.091
306.109
306.127
306.144
306.16
306.176
306.192
306.207
306.222
306.236
306.249
306.262
306.274
306.285
306.296
306.306
306.314
306.322
306.329
306.335
306.34
306.344
306.346
306.347
306.346
306.344
306.34
306.335
306.327
306.317
306.305
306.291
306.273
306.253
306.229
306.202
306.171
306.136
306.096
306.05
305.997
305.938
305.875
305.8
305.698
305.55
305.33
302.671
302.767
302.858
302.941
303.018
303.09
303.156
303.218
303.276
303.33
303.38
303.427
303.472
303.514
303.553
303.59
303.626
303.659
303.692
303.723
303.753
303.783
303.812
303.842
303.871
303.901
303.93
303.959
303.988
304.016
304.045
304.073
304.101
304.128
304.156
304.183
304.21
304.237
304.264
304.29
304.317
304.343
304.369