/*--------------------------------*- C++ -*----------------------------------*\
| =========                 |                                                 |
| \\      /  F ield         | OpenFOAM: The Open Source CFD Toolbox           |
|  \\    /   O peration     | Version:  2112                                  |
|   \\  /    A nd           | Website:  www.openfoam.com                      |
|    \\/     M anipulation  |                                                 |
\*---------------------------------------------------------------------------*/
FoamFile
{
    version     2.0;
    format      ascii;
    arch        "LSB;label=32;scalar=64";
    class       volVectorField;
    location    "6";
    object      U;
}
// * * * * * * * * * * * * * * * * * * * * * * * * * * * * * * * * * * * * * //

dimensions      [0 1 -1 0 0 0 0];

internalField   nonuniform List<vector> 
12013
(
(0.100035 -9.75772e-06 0)
(0.100178 -1.80459e-05 0)
(0.10041 -2.57386e-05 0)
(0.10071 -3.28399e-05 0)
(0.101072 -3.952e-05 0)
(0.101491 -4.58759e-05 0)
(0.10196 -5.19692e-05 0)
(0.102476 -5.78487e-05 0)
(0.103035 -6.35523e-05 0)
(0.103634 -6.91096e-05 0)
(0.104269 -7.4543e-05 0)
(0.104938 -7.98723e-05 0)
(0.105638 -8.51116e-05 0)
(0.106368 -9.02738e-05 0)
(0.107125 -9.53685e-05 0)
(0.107907 -0.000100404 0)
(0.108713 -0.000105385 0)
(0.109541 -0.000110318 0)
(0.11039 -0.000115205 0)
(0.111257 -0.000120048 0)
(0.112143 -0.000124849 0)
(0.113044 -0.000129608 0)
(0.113961 -0.000134323 0)
(0.114892 -0.000138995 0)
(0.115835 -0.00014362 0)
(0.116789 -0.000148195 0)
(0.117754 -0.000152718 0)
(0.118729 -0.000157184 0)
(0.119711 -0.000161588 0)
(0.1207 -0.000165925 0)
(0.121696 -0.000170187 0)
(0.122696 -0.00017437 0)
(0.1237 -0.000178465 0)
(0.124707 -0.000182463 0)
(0.125716 -0.000186355 0)
(0.126726 -0.000190132 0)
(0.127735 -0.000193782 0)
(0.128743 -0.000197294 0)
(0.129749 -0.000200652 0)
(0.130752 -0.000203844 0)
(0.131749 -0.000206852 0)
(0.132742 -0.000209658 0)
(0.133727 -0.000212242 0)
(0.134705 -0.000214582 0)
(0.135674 -0.000216653 0)
(0.136633 -0.000218427 0)
(0.13758 -0.000219872 0)
(0.138514 -0.000220953 0)
(0.139434 -0.000221629 0)
(0.140338 -0.000221854 0)
(0.141225 -0.000221575 0)
(0.142094 -0.000220733 0)
(0.142941 -0.000219256 0)
(0.143766 -0.000217063 0)
(0.144566 -0.000214059 0)
(0.145338 -0.000210131 0)
(0.146081 -0.000205146 0)
(0.146791 -0.000198946 0)
(0.147466 -0.00019134 0)
(0.1481 -0.000182096 0)
(0.148691 -0.000170932 0)
(0.149232 -0.000157499 0)
(0.149719 -0.000141361 0)
(0.150144 -0.00012197 0)
(0.1505 -9.86251e-05 0)
(0.150776 -7.042e-05 0)
(0.15096 -3.61648e-05 0)
(0.151038 5.72952e-06 0)
(0.15099 5.74478e-05 0)
(0.150793 0.000122089 0)
(0.150413 0.000204067 0)
(0.149809 0.000309876 0)
(0.148922 0.00044937 0)
(0.147669 0.000637976 0)
(0.145928 0.000900689 0)
(0.14352 0.00127941 0)
(0.140164 0.00184696 0)
(0.135397 0.0027376 0)
(0.128446 0.00424044 0)
(0.118248 0.00720295 0)
(0.106545 0.015597 0)
(0.100032 -2.97932e-05 0)
(0.100175 -5.53283e-05 0)
(0.100406 -7.8954e-05 0)
(0.100705 -0.000100748 0)
(0.101066 -0.00012125 0)
(0.101484 -0.000140755 0)
(0.101953 -0.000159452 0)
(0.102468 -0.000177492 0)
(0.103026 -0.000194992 0)
(0.103623 -0.00021204 0)
(0.104257 -0.000228708 0)
(0.104925 -0.000245055 0)
(0.105624 -0.000261126 0)
(0.106353 -0.000276959 0)
(0.107109 -0.000292584 0)
(0.10789 -0.000308025 0)
(0.108695 -0.000323301 0)
(0.109522 -0.000338426 0)
(0.110369 -0.000353411 0)
(0.111235 -0.00036826 0)
(0.112119 -0.000382979 0)
(0.11302 -0.000397567 0)
(0.113935 -0.000412023 0)
(0.114864 -0.000426342 0)
(0.115805 -0.000440518 0)
(0.116758 -0.000454541 0)
(0.117722 -0.000468402 0)
(0.118694 -0.000482086 0)
(0.119675 -0.00049558 0)
(0.120662 -0.000508867 0)
(0.121656 -0.000521927 0)
(0.122654 -0.00053474 0)
(0.123657 -0.000547283 0)
(0.124662 -0.000559529 0)
(0.125668 -0.00057145 0)
(0.126676 -0.000583016 0)
(0.127683 -0.000594193 0)
(0.128689 -0.000604943 0)
(0.129693 -0.000615224 0)
(0.130693 -0.000624993 0)
(0.131688 -0.000634198 0)
(0.132678 -0.000642784 0)
(0.133661 -0.00065069 0)
(0.134637 -0.000657847 0)
(0.135603 -0.000664179 0)
(0.136559 -0.000669601 0)
(0.137503 -0.000674015 0)
(0.138435 -0.000677313 0)
(0.139352 -0.000679372 0)
(0.140254 -0.000680051 0)
(0.141139 -0.000679188 0)
(0.142004 -0.0006766 0)
(0.142849 -0.000672072 0)
(0.143671 -0.000665355 0)
(0.144469 -0.00065616 0)
(0.145239 -0.000644143 0)
(0.14598 -0.000628901 0)
(0.146688 -0.000609951 0)
(0.147361 -0.000586714 0)
(0.147995 -0.00055849 0)
(0.148585 -0.000524421 0)
(0.149126 -0.000483454 0)
(0.149614 -0.000434275 0)
(0.150042 -0.000375232 0)
(0.150402 -0.00030422 0)
(0.150684 -0.000218527 0)
(0.150877 -0.000114603 0)
(0.150968 1.22635e-05 0)
(0.150939 0.000168478 0)
(0.150769 0.000362997 0)
(0.150429 0.000608488 0)
(0.149884 0.000923318 0)
(0.149085 0.00133482 0)
(0.147968 0.00188476 0)
(0.146447 0.00263862 0)
(0.144402 0.0037015 0)
(0.141676 0.00524455 0)
(0.138047 0.00754861 0)
(0.133252 0.0110775 0)
(0.127305 0.0165084 0)
(0.122434 0.0241762 0)
(0.10003 -5.06397e-05 0)
(0.100171 -9.49026e-05 0)
(0.100399 -0.000135593 0)
(0.100697 -0.000173117 0)
(0.101056 -0.00020841 0)
(0.101472 -0.000241979 0)
(0.101938 -0.000274152 0)
(0.102452 -0.000305192 0)
(0.103008 -0.000335299 0)
(0.103603 -0.000364626 0)
(0.104235 -0.000393298 0)
(0.104901 -0.000421414 0)
(0.105598 -0.000449054 0)
(0.106324 -0.000476283 0)
(0.107078 -0.000503152 0)
(0.107857 -0.000529704 0)
(0.108659 -0.000555969 0)
(0.109483 -0.000581973 0)
(0.110328 -0.000607732 0)
(0.111192 -0.000633259 0)
(0.112073 -0.000658558 0)
(0.11297 -0.00068363 0)
(0.113882 -0.000708474 0)
(0.114808 -0.00073308 0)
(0.115747 -0.000757437 0)
(0.116697 -0.00078153 0)
(0.117656 -0.000805341 0)
(0.118625 -0.000828847 0)
(0.119602 -0.000852023 0)
(0.120586 -0.00087484 0)
(0.121576 -0.000897265 0)
(0.12257 -0.000919263 0)
(0.123569 -0.000940793 0)
(0.12457 -0.000961811 0)
(0.125572 -0.000982269 0)
(0.126575 -0.00100211 0)
(0.127578 -0.00102128 0)
(0.12858 -0.00103972 0)
(0.129578 -0.00105735 0)
(0.130574 -0.00107409 0)
(0.131564 -0.00108986 0)
(0.132549 -0.00110457 0)
(0.133528 -0.0011181 0)
(0.134498 -0.00113035 0)
(0.135459 -0.00114118 0)
(0.13641 -0.00115044 0)
(0.137349 -0.00115797 0)
(0.138275 -0.00116359 0)
(0.139187 -0.00116707 0)
(0.140083 -0.00116819 0)
(0.140963 -0.00116667 0)
(0.141823 -0.0011622 0)
(0.142662 -0.0011544 0)
(0.143479 -0.00114287 0)
(0.144272 -0.0011271 0)
(0.145038 -0.00110652 0)
(0.145774 -0.00108045 0)
(0.146479 -0.00104807 0)
(0.147148 -0.00100841 0)
(0.147779 -0.000960304 0)
(0.148367 -0.000902315 0)
(0.148908 -0.000832692 0)
(0.149398 -0.000749262 0)
(0.149829 -0.000649306 0)
(0.150194 -0.000529381 0)
(0.150487 -0.000385081 0)
(0.150696 -0.000210694 0)
(0.150809 1.28402e-06 0)
(0.150813 0.000260863 0)
(0.150689 0.00058176 0)
(0.150417 0.000982982 0)
(0.149969 0.00149131 0)
(0.149315 0.00214516 0)
(0.148416 0.00300054 0)
(0.14723 0.00414019 0)
(0.145711 0.00568695 0)
(0.143827 0.00782118 0)
(0.141584 0.010798 0)
(0.139089 0.0149479 0)
(0.136761 0.0205478 0)
(0.135827 0.0270587 0)
(0.100027 -7.21161e-05 0)
(0.100165 -0.000136657 0)
(0.100391 -0.000195589 0)
(0.100685 -0.000249966 0)
(0.101042 -0.000301087 0)
(0.101455 -0.000349693 0)
(0.101918 -0.00039627 0)
(0.102429 -0.000441199 0)
(0.102982 -0.00048477 0)
(0.103574 -0.000527207 0)
(0.104203 -0.000568691 0)
(0.104865 -0.000609365 0)
(0.105559 -0.000649346 0)
(0.106282 -0.000688728 0)
(0.107032 -0.000727587 0)
(0.107807 -0.00076598 0)
(0.108605 -0.000803956 0)
(0.109426 -0.000841549 0)
(0.110266 -0.000878785 0)
(0.111126 -0.000915679 0)
(0.112002 -0.00095224 0)
(0.112895 -0.00098847 0)
(0.113803 -0.00102436 0)
(0.114724 -0.00105991 0)
(0.115658 -0.00109509 0)
(0.116602 -0.00112988 0)
(0.117557 -0.00116427 0)
(0.118521 -0.0011982 0)
(0.119492 -0.00123166 0)
(0.12047 -0.00126458 0)
(0.121454 -0.00129694 0)
(0.122443 -0.00132868 0)
(0.123435 -0.00135973 0)
(0.12443 -0.00139003 0)
(0.125426 -0.00141952 0)
(0.126422 -0.00144812 0)
(0.127418 -0.00147574 0)
(0.128413 -0.00150229 0)
(0.129405 -0.00152766 0)
(0.130393 -0.00155175 0)
(0.131376 -0.00157444 0)
(0.132354 -0.00159558 0)
(0.133324 -0.00161502 0)
(0.134287 -0.0016326 0)
(0.13524 -0.00164812 0)
(0.136183 -0.00166138 0)
(0.137114 -0.00167214 0)
(0.138033 -0.00168014 0)
(0.138937 -0.00168507 0)
(0.139825 -0.00168659 0)
(0.140696 -0.00168431 0)
(0.141548 -0.00167779 0)
(0.14238 -0.0016665 0)
(0.14319 -0.00164985 0)
(0.143975 -0.00162715 0)
(0.144734 -0.00159758 0)
(0.145464 -0.00156018 0)
(0.146163 -0.00151381 0)
(0.146827 -0.00145713 0)
(0.147454 -0.00138849 0)
(0.148041 -0.00130593 0)
(0.148582 -0.00120703 0)
(0.149074 -0.00108885 0)
(0.14951 -0.000947685 0)
(0.149886 -0.000778935 0)
(0.150194 -0.000576753 0)
(0.150426 -0.000333665 0)
(0.150573 -4.00135e-05 0)
(0.150625 0.000316763 0)
(0.150568 0.00075341 0)
(0.15039 0.00129246 0)
(0.150076 0.00196444 0)
(0.149612 0.00281103 0)
(0.148985 0.00388938 0)
(0.148193 0.00527756 0)
(0.147247 0.00708044 0)
(0.146194 0.00943248 0)
(0.145145 0.0124881 0)
(0.144315 0.0163764 0)
(0.14408 0.0210492 0)
(0.144974 0.0258534 0)
(0.100024 -9.42283e-05 0)
(0.10016 -0.000180513 0)
(0.100381 -0.000258903 0)
(0.100672 -0.000331312 0)
(0.101024 -0.000399361 0)
(0.101433 -0.000464037 0)
(0.101893 -0.000525998 0)
(0.102399 -0.000585753 0)
(0.102948 -0.000643689 0)
(0.103536 -0.000700108 0)
(0.10416 -0.00075525 0)
(0.104818 -0.000809307 0)
(0.105507 -0.000862434 0)
(0.106225 -0.000914757 0)
(0.10697 -0.000966376 0)
(0.10774 -0.00101737 0)
(0.108534 -0.0010678 0)
(0.109348 -0.00111772 0)
(0.110183 -0.00116715 0)
(0.111037 -0.00121612 0)
(0.111908 -0.00126464 0)
(0.112795 -0.00131271 0)
(0.113696 -0.00136033 0)
(0.114611 -0.00140748 0)
(0.115537 -0.00145413 0)
(0.116475 -0.00150026 0)
(0.117423 -0.00154584 0)
(0.118379 -0.00159081 0)
(0.119343 -0.00163514 0)
(0.120314 -0.00167876 0)
(0.12129 -0.00172161 0)
(0.12227 -0.00176362 0)
(0.123254 -0.00180471 0)
(0.12424 -0.00184481 0)
(0.125228 -0.00188381 0)
(0.126216 -0.00192162 0)
(0.127203 -0.00195811 0)
(0.128188 -0.00199318 0)
(0.12917 -0.00202668 0)
(0.130149 -0.00205847 0)
(0.131123 -0.00208838 0)
(0.13209 -0.00211623 0)
(0.133051 -0.00214182 0)
(0.134003 -0.00216494 0)
(0.134946 -0.00218532 0)
(0.135879 -0.00220271 0)
(0.136799 -0.00221678 0)
(0.137707 -0.00222719 0)
(0.1386 -0.00223355 0)
(0.139478 -0.00223541 0)
(0.140339 -0.00223226 0)
(0.141181 -0.00222352 0)
(0.142003 -0.00220853 0)
(0.142803 -0.00218652 0)
(0.143579 -0.00215658 0)
(0.144329 -0.00211769 0)
(0.145051 -0.00206861 0)
(0.145743 -0.0020079 0)
(0.146402 -0.00193386 0)
(0.147025 -0.00184444 0)
(0.14761 -0.00173719 0)
(0.148152 -0.00160912 0)
(0.148648 -0.00145663 0)
(0.149094 -0.00127525 0)
(0.149484 -0.00105947 0)
(0.149814 -0.000802432 0)
(0.150078 -0.000495488 0)
(0.15027 -0.000127728 0)
(0.150383 0.000314635 0)
(0.150411 0.00084928 0)
(0.150349 0.00149914 0)
(0.150193 0.00229383 0)
(0.149944 0.00327142 0)
(0.14961 0.00448038 0)
(0.149213 0.00598102 0)
(0.148795 0.00784498 0)
(0.148435 0.0101492 0)
(0.148257 0.0129572 0)
(0.148451 0.0162735 0)
(0.149258 0.0199467 0)
(0.15089 0.0235044 0)
(0.100021 -0.000116984 0)
(0.100154 -0.000226392 0)
(0.100371 -0.000325484 0)
(0.100656 -0.000417143 0)
(0.101004 -0.000503272 0)
(0.101408 -0.000585104 0)
(0.101862 -0.00066348 0)
(0.102363 -0.000739045 0)
(0.102907 -0.000812292 0)
(0.103489 -0.000883606 0)
(0.104108 -0.000953289 0)
(0.10476 -0.00102159 0)
(0.105443 -0.0010887 0)
(0.106155 -0.00115478 0)
(0.106894 -0.00121996 0)
(0.107657 -0.00128433 0)
(0.108444 -0.00134799 0)
(0.109252 -0.00141098 0)
(0.110079 -0.00147334 0)
(0.110926 -0.00153512 0)
(0.111789 -0.00159631 0)
(0.112668 -0.00165692 0)
(0.113561 -0.00171694 0)
(0.114467 -0.00177636 0)
(0.115386 -0.00183514 0)
(0.116315 -0.00189325 0)
(0.117253 -0.00195064 0)
(0.118201 -0.00200726 0)
(0.119155 -0.00206305 0)
(0.120116 -0.00211793 0)
(0.121082 -0.00217182 0)
(0.122052 -0.00222464 0)
(0.123026 -0.00227629 0)
(0.124001 -0.00232666 0)
(0.124978 -0.00237563 0)
(0.125954 -0.00242308 0)
(0.12693 -0.00246887 0)
(0.127904 -0.00251283 0)
(0.128874 -0.00255481 0)
(0.129841 -0.00259461 0)
(0.130802 -0.00263203 0)
(0.131758 -0.00266684 0)
(0.132706 -0.0026988 0)
(0.133645 -0.00272762 0)
(0.134576 -0.00275301 0)
(0.135495 -0.00277461 0)
(0.136403 -0.00279205 0)
(0.137298 -0.00280489 0)
(0.138179 -0.00281265 0)
(0.139044 -0.00281479 0)
(0.139892 -0.00281067 0)
(0.140721 -0.00279958 0)
(0.141531 -0.00278073 0)
(0.14232 -0.00275317 0)
(0.143085 -0.00271582 0)
(0.143825 -0.00266743 0)
(0.144539 -0.00260655 0)
(0.145223 -0.00253146 0)
(0.145876 -0.00244015 0)
(0.146496 -0.00233023 0)
(0.147079 -0.00219887 0)
(0.147624 -0.00204265 0)
(0.148127 -0.00185748 0)
(0.148585 -0.0016384 0)
(0.148994 -0.00137939 0)
(0.149353 -0.00107305 0)
(0.149656 -0.000710322 0)
(0.149902 -0.000280055 0)
(0.150089 0.000231404 0)
(0.150214 0.000840634 0)
(0.150281 0.00156827 0)
(0.150293 0.00243945 0)
(0.150262 0.00348431 0)
(0.150209 0.00473792 0)
(0.150166 0.00623913 0)
(0.150184 0.00802702 0)
(0.15034 0.0101328 0)
(0.150737 0.0125639 0)
(0.151503 0.0152749 0)
(0.15277 0.0181223 0)
(0.154611 0.0208145 0)
(0.100019 -0.000140394 0)
(0.100148 -0.000274235 0)
(0.10036 -0.000395284 0)
(0.10064 -0.000507428 0)
(0.100981 -0.000612828 0)
(0.101379 -0.000712947 0)
(0.101827 -0.000808813 0)
(0.102322 -0.000901217 0)
(0.102859 -0.000990764 0)
(0.103435 -0.00107792 0)
(0.104046 -0.00116307 0)
(0.104691 -0.0012465 0)
(0.105367 -0.00132846 0)
(0.106071 -0.00140914 0)
(0.106802 -0.00148871 0)
(0.107558 -0.00156727 0)
(0.108336 -0.00164493 0)
(0.109135 -0.00172177 0)
(0.109954 -0.00179782 0)
(0.110791 -0.00187313 0)
(0.111645 -0.00194772 0)
(0.112515 -0.00202157 0)
(0.113398 -0.00209469 0)
(0.114294 -0.00216705 0)
(0.115202 -0.00223862 0)
(0.116121 -0.00230934 0)
(0.117048 -0.00237917 0)
(0.117984 -0.00244803 0)
(0.118927 -0.00251585 0)
(0.119876 -0.00258255 0)
(0.120831 -0.00264802 0)
(0.121788 -0.00271216 0)
(0.122749 -0.00277485 0)
(0.123712 -0.00283596 0)
(0.124675 -0.00289535 0)
(0.125639 -0.00295285 0)
(0.126601 -0.00300831 0)
(0.12756 -0.00306152 0)
(0.128517 -0.00311229 0)
(0.129469 -0.00316039 0)
(0.130416 -0.00320557 0)
(0.131357 -0.00324756 0)
(0.13229 -0.00328607 0)
(0.133214 -0.00332076 0)
(0.13413 -0.00335125 0)
(0.135034 -0.00337715 0)
(0.135927 -0.003398 0)
(0.136806 -0.00341328 0)
(0.137672 -0.00342242 0)
(0.138522 -0.00342478 0)
(0.139356 -0.00341963 0)
(0.140171 -0.00340613 0)
(0.140968 -0.00338334 0)
(0.141743 -0.00335019 0)
(0.142496 -0.00330542 0)
(0.143226 -0.00324762 0)
(0.143929 -0.00317512 0)
(0.144606 -0.003086 0)
(0.145253 -0.00297802 0)
(0.14587 -0.00284854 0)
(0.146454 -0.00269448 0)
(0.147003 -0.00251217 0)
(0.147515 -0.00229729 0)
(0.147989 -0.00204468 0)
(0.148422 -0.00174821 0)
(0.148814 -0.00140055 0)
(0.149163 -0.000992962 0)
(0.14947 -0.000515034 0)
(0.149737 4.55749e-05 0)
(0.149965 0.000702901 0)
(0.150162 0.0014734 0)
(0.150339 0.00237589 0)
(0.150511 0.00343104 0)
(0.150704 0.00466024 0)
(0.150951 0.00608345 0)
(0.151299 0.00771533 0)
(0.151808 0.0095587 0)
(0.15255 0.0115945 0)
(0.153602 0.0137675 0)
(0.155027 0.0159703 0)
(0.156838 0.0180338 0)
(0.100016 -0.000164479 0)
(0.100142 -0.000323997 0)
(0.100349 -0.000468259 0)
(0.100622 -0.000602127 0)
(0.100957 -0.000728014 0)
(0.101348 -0.000847585 0)
(0.101789 -0.000962055 0)
(0.102276 -0.00107236 0)
(0.102805 -0.00117923 0)
(0.103373 -0.00128323 0)
(0.103976 -0.00138479 0)
(0.104613 -0.00148427 0)
(0.105279 -0.00158198 0)
(0.105975 -0.00167813 0)
(0.106696 -0.00177293 0)
(0.107442 -0.0018665 0)
(0.10821 -0.00195898 0)
(0.109 -0.00205044 0)
(0.109808 -0.00214095 0)
(0.110635 -0.00223054 0)
(0.111478 -0.00231924 0)
(0.112336 -0.00240705 0)
(0.113207 -0.00249396 0)
(0.114092 -0.00257993 0)
(0.114987 -0.00266493 0)
(0.115893 -0.0027489 0)
(0.116808 -0.00283177 0)
(0.117731 -0.00291347 0)
(0.11866 -0.00299389 0)
(0.119595 -0.00307295 0)
(0.120535 -0.00315052 0)
(0.121479 -0.00322648 0)
(0.122425 -0.00330067 0)
(0.123372 -0.00337296 0)
(0.12432 -0.00344317 0)
(0.125268 -0.00351111 0)
(0.126214 -0.00357658 0)
(0.127158 -0.00363936 0)
(0.128098 -0.00369921 0)
(0.129033 -0.00375586 0)
(0.129964 -0.00380903 0)
(0.130887 -0.00385839 0)
(0.131803 -0.0039036 0)
(0.132711 -0.00394427 0)
(0.133609 -0.00397997 0)
(0.134496 -0.00401023 0)
(0.135371 -0.00403452 0)
(0.136234 -0.00405226 0)
(0.137082 -0.0040628 0)
(0.137916 -0.00406538 0)
(0.138733 -0.0040592 0)
(0.139533 -0.00404331 0)
(0.140314 -0.00401666 0)
(0.141076 -0.00397804 0)
(0.141816 -0.00392609 0)
(0.142534 -0.00385924 0)
(0.143227 -0.00377569 0)
(0.143896 -0.00367339 0)
(0.144538 -0.00354994 0)
(0.145153 -0.0034026 0)
(0.145738 -0.00322817 0)
(0.146293 -0.00302295 0)
(0.146817 -0.00278262 0)
(0.14731 -0.00250218 0)
(0.14777 -0.00217582 0)
(0.148199 -0.0017968 0)
(0.148598 -0.00135734 0)
(0.148968 -0.000848546 0)
(0.149315 -0.00026035 0)
(0.149645 0.00041837 0)
(0.149966 0.00119888 0)
(0.150291 0.00209341 0)
(0.150638 0.00311382 0)
(0.15103 0.00427024 0)
(0.151498 0.00556901 0)
(0.152076 0.0070097 0)
(0.152808 0.0085811 0)
(0.153737 0.0102562 0)
(0.154904 0.0119867 0)
(0.156336 0.0136995 0)
(0.158026 0.015299 0)
(0.100013 -0.000189272 0)
(0.100137 -0.000375651 0)
(0.100337 -0.000544371 0)
(0.100604 -0.000701199 0)
(0.100931 -0.000848799 0)
(0.101314 -0.000989007 0)
(0.101747 -0.00112322 0)
(0.102225 -0.00125253 0)
(0.102745 -0.00137778 0)
(0.103304 -0.00149962 0)
(0.103898 -0.00161857 0)
(0.104524 -0.00173506 0)
(0.105181 -0.00184943 0)
(0.105866 -0.00196195 0)
(0.106577 -0.00207283 0)
(0.107311 -0.00218226 0)
(0.108068 -0.00229036 0)
(0.108846 -0.00239725 0)
(0.109642 -0.00250298 0)
(0.110456 -0.00260761 0)
(0.111286 -0.00271116 0)
(0.112131 -0.00281363 0)
(0.112989 -0.00291501 0)
(0.11386 -0.00301526 0)
(0.114741 -0.00311433 0)
(0.115633 -0.00321216 0)
(0.116532 -0.00330867 0)
(0.11744 -0.00340377 0)
(0.118354 -0.00349735 0)
(0.119273 -0.00358929 0)
(0.120197 -0.00367945 0)
(0.121124 -0.00376768 0)
(0.122053 -0.00385383 0)
(0.122983 -0.0039377 0)
(0.123914 -0.00401911 0)
(0.124843 -0.00409783 0)
(0.125771 -0.00417364 0)
(0.126697 -0.00424627 0)
(0.127618 -0.00431546 0)
(0.128535 -0.00438089 0)
(0.129446 -0.00444223 0)
(0.130351 -0.00449912 0)
(0.131247 -0.00455117 0)
(0.132136 -0.00459793 0)
(0.133014 -0.00463892 0)
(0.133882 -0.00467361 0)
(0.134738 -0.00470141 0)
(0.135582 -0.00472166 0)
(0.136412 -0.00473363 0)
(0.137227 -0.00473652 0)
(0.138027 -0.00472942 0)
(0.13881 -0.0047113 0)
(0.139575 -0.00468103 0)
(0.140321 -0.00463731 0)
(0.141047 -0.0045787 0)
(0.141753 -0.00450354 0)
(0.142437 -0.00440996 0)
(0.143098 -0.00429585 0)
(0.143735 -0.0041588 0)
(0.144348 -0.00399606 0)
(0.144936 -0.0038045 0)
(0.145499 -0.00358059 0)
(0.146037 -0.00332028 0)
(0.14655 -0.00301901 0)
(0.147039 -0.00267166 0)
(0.147506 -0.00227247 0)
(0.147954 -0.00181512 0)
(0.148387 -0.00129267 0)
(0.14881 -0.000697721 0)
(0.149232 -2.24915e-05 0)
(0.149662 0.000740123 0)
(0.150112 0.00159608 0)
(0.150599 0.00255034 0)
(0.151143 0.00360515 0)
(0.151765 0.00475855 0)
(0.152492 0.00600264 0)
(0.153349 0.00732149 0)
(0.154362 0.00868932 0)
(0.155551 0.0100692 0)
(0.156922 0.0114135 0)
(0.158465 0.0126685 0)
(0.10001 -0.000214807 0)
(0.100131 -0.000429175 0)
(0.100326 -0.00062359 0)
(0.100585 -0.000804599 0)
(0.100905 -0.000975134 0)
(0.101279 -0.00113718 0)
(0.101702 -0.0012923 0)
(0.102171 -0.00144172 0)
(0.102681 -0.00158642 0)
(0.103229 -0.00172714 0)
(0.103812 -0.00186449 0)
(0.104427 -0.00199895 0)
(0.105073 -0.00213091 0)
(0.105745 -0.00226069 0)
(0.106444 -0.00238854 0)
(0.107166 -0.00251467 0)
(0.10791 -0.00263923 0)
(0.108674 -0.00276233 0)
(0.109456 -0.00288406 0)
(0.110256 -0.00300448 0)
(0.111072 -0.0031236 0)
(0.111901 -0.00324143 0)
(0.112744 -0.00335796 0)
(0.113599 -0.00347313 0)
(0.114464 -0.00358691 0)
(0.115339 -0.00369921 0)
(0.116222 -0.00380994 0)
(0.117112 -0.00391899 0)
(0.118009 -0.00402624 0)
(0.11891 -0.00413155 0)
(0.119815 -0.00423476 0)
(0.120723 -0.00433571 0)
(0.121634 -0.00443421 0)
(0.122544 -0.00453005 0)
(0.123455 -0.004623 0)
(0.124365 -0.00471282 0)
(0.125273 -0.00479924 0)
(0.126178 -0.00488198 0)
(0.127079 -0.00496072 0)
(0.127974 -0.00503512 0)
(0.128865 -0.00510481 0)
(0.129748 -0.00516938 0)
(0.130623 -0.00522838 0)
(0.13149 -0.00528133 0)
(0.132348 -0.0053277 0)
(0.133194 -0.0053669 0)
(0.13403 -0.00539829 0)
(0.134853 -0.00542115 0)
(0.135663 -0.0054347 0)
(0.136458 -0.00543807 0)
(0.137239 -0.00543029 0)
(0.138004 -0.00541028 0)
(0.138752 -0.00537686 0)
(0.139482 -0.00532868 0)
(0.140194 -0.00526425 0)
(0.140887 -0.00518192 0)
(0.141561 -0.00507981 0)
(0.142214 -0.00495584 0)
(0.142847 -0.00480769 0)
(0.143459 -0.00463276 0)
(0.144051 -0.00442815 0)
(0.144623 -0.00419065 0)
(0.145175 -0.00391673 0)
(0.145709 -0.0036025 0)
(0.146226 -0.00324376 0)
(0.146731 -0.00283603 0)
(0.147225 -0.00237458 0)
(0.147715 -0.00185463 0)
(0.148205 -0.00127144 0)
(0.148705 -0.000620498 0)
(0.149224 0.000102267 0)
(0.149773 0.000898508 0)
(0.150365 0.00176788 0)
(0.151013 0.00270795 0)
(0.151735 0.00371275 0)
(0.152547 0.0047718 0)
(0.153463 0.00586947 0)
(0.154497 0.00698459 0)
(0.155656 0.00809072 0)
(0.15694 0.00915764 0)
(0.158338 0.0101547 0)
(0.100006 -0.000241116 0)
(0.100125 -0.000484556 0)
(0.100314 -0.000705881 0)
(0.100566 -0.000912275 0)
(0.100877 -0.00110696 0)
(0.101242 -0.00129203 0)
(0.101655 -0.00146921 0)
(0.102113 -0.00163988 0)
(0.102612 -0.00180511 0)
(0.103149 -0.00196576 0)
(0.103719 -0.00212251 0)
(0.104322 -0.00227592 0)
(0.104954 -0.00242642 0)
(0.105614 -0.00257437 0)
(0.106298 -0.00272008 0)
(0.107006 -0.00286376 0)
(0.107735 -0.00300559 0)
(0.108484 -0.00314571 0)
(0.109251 -0.0032842 0)
(0.110035 -0.00342114 0)
(0.110834 -0.00355655 0)
(0.111647 -0.00369043 0)
(0.112473 -0.00382276 0)
(0.11331 -0.00395351 0)
(0.114157 -0.00408259 0)
(0.115014 -0.00420993 0)
(0.115878 -0.00433542 0)
(0.116749 -0.00445895 0)
(0.117625 -0.00458036 0)
(0.118507 -0.00469951 0)
(0.119392 -0.00481621 0)
(0.120279 -0.00493027 0)
(0.121168 -0.00504149 0)
(0.122057 -0.00514963 0)
(0.122947 -0.00525443 0)
(0.123834 -0.00535562 0)
(0.12472 -0.00545291 0)
(0.125602 -0.00554598 0)
(0.12648 -0.00563447 0)
(0.127353 -0.00571801 0)
(0.12822 -0.00579618 0)
(0.12908 -0.00586855 0)
(0.129933 -0.00593462 0)
(0.130776 -0.00599388 0)
(0.131611 -0.00604573 0)
(0.132435 -0.00608956 0)
(0.133248 -0.00612468 0)
(0.134049 -0.00615032 0)
(0.134837 -0.00616568 0)
(0.135612 -0.00616983 0)
(0.136372 -0.00616178 0)
(0.137118 -0.00614043 0)
(0.137848 -0.00610457 0)
(0.138562 -0.00605286 0)
(0.13926 -0.00598384 0)
(0.13994 -0.00589588 0)
(0.140603 -0.00578722 0)
(0.141249 -0.00565588 0)
(0.141878 -0.00549973 0)
(0.14249 -0.00531645 0)
(0.143085 -0.00510349 0)
(0.143665 -0.00485813 0)
(0.14423 -0.00457749 0)
(0.144784 -0.00425849 0)
(0.145328 -0.003898 0)
(0.145866 -0.00349285 0)
(0.146401 -0.00303993 0)
(0.146938 -0.00253642 0)
(0.147484 -0.00197988 0)
(0.148046 -0.00136853 0)
(0.148632 -0.000701383 0)
(0.149251 2.17371e-05 0)
(0.149913 0.000798029 0)
(0.150628 0.00162161 0)
(0.151406 0.00248524 0)
(0.152257 0.00337877 0)
(0.153188 0.00428896 0)
(0.154205 0.00519972 0)
(0.155309 0.00609281 0)
(0.156498 0.00694916 0)
(0.157762 0.00775104 0)
(0.100003 -0.000268225 0)
(0.100119 -0.000541776 0)
(0.100303 -0.000791198 0)
(0.100547 -0.00102416 0)
(0.100849 -0.00124418 0)
(0.101203 -0.00145347 0)
(0.101606 -0.00165387 0)
(0.102053 -0.00184689 0)
(0.102539 -0.00203375 0)
(0.103063 -0.00221538 0)
(0.10362 -0.00239254 0)
(0.104209 -0.00256587 0)
(0.104827 -0.00273584 0)
(0.105472 -0.00290289 0)
(0.106141 -0.00306732 0)
(0.106833 -0.00322939 0)
(0.107546 -0.00338931 0)
(0.108278 -0.00354723 0)
(0.109028 -0.00370325 0)
(0.109794 -0.00385743 0)
(0.110575 -0.00400982 0)
(0.111369 -0.00416042 0)
(0.112176 -0.0043092 0)
(0.112993 -0.00445611 0)
(0.113821 -0.00460108 0)
(0.114657 -0.00474401 0)
(0.1155 -0.00488478 0)
(0.11635 -0.00502327 0)
(0.117205 -0.0051593 0)
(0.118064 -0.0052927 0)
(0.118926 -0.00542328 0)
(0.119791 -0.00555082 0)
(0.120656 -0.00567509 0)
(0.121522 -0.00579582 0)
(0.122388 -0.00591274 0)
(0.123251 -0.00602555 0)
(0.124113 -0.00613392 0)
(0.12497 -0.00623749 0)
(0.125824 -0.0063359 0)
(0.126672 -0.00642872 0)
(0.127514 -0.00651551 0)
(0.128349 -0.0065958 0)
(0.129177 -0.00666906 0)
(0.129996 -0.00673473 0)
(0.130805 -0.00679221 0)
(0.131605 -0.00684084 0)
(0.132394 -0.00687989 0)
(0.133172 -0.0069086 0)
(0.133937 -0.00692611 0)
(0.13469 -0.0069315 0)
(0.135429 -0.00692378 0)
(0.136155 -0.00690186 0)
(0.136867 -0.00686455 0)
(0.137564 -0.00681056 0)
(0.138246 -0.00673851 0)
(0.138913 -0.00664689 0)
(0.139566 -0.00653406 0)
(0.140204 -0.0063983 0)
(0.140828 -0.00623773 0)
(0.141439 -0.00605037 0)
(0.142037 -0.00583416 0)
(0.142624 -0.00558695 0)
(0.143202 -0.00530655 0)
(0.143772 -0.00499078 0)
(0.144338 -0.00463753 0)
(0.144903 -0.00424487 0)
(0.145471 -0.00381114 0)
(0.146046 -0.00333511 0)
(0.146634 -0.00281612 0)
(0.14724 -0.00225431 0)
(0.147871 -0.00165071 0)
(0.148534 -0.00100739 0)
(0.149236 -0.0003273 0)
(0.149985 0.000384968 0)
(0.150786 0.00112092 0)
(0.151643 0.00187108 0)
(0.15256 0.00262515 0)
(0.153538 0.00337154 0)
(0.154577 0.00409806 0)
(0.155673 0.0047927 0)
(0.156818 0.00544504 0)
(0.0999993 -0.000296146 0)
(0.100114 -0.000600808 0)
(0.100291 -0.000879481 0)
(0.100527 -0.00114017 0)
(0.10082 -0.00138669 0)
(0.101164 -0.00162135 0)
(0.101555 -0.0018461 0)
(0.101989 -0.0020626 0)
(0.102462 -0.00227214 0)
(0.102972 -0.00247579 0)
(0.103515 -0.00267437 0)
(0.104089 -0.00286857 0)
(0.104691 -0.00305896 0)
(0.105319 -0.00324599 0)
(0.105972 -0.00343 0)
(0.106646 -0.0036113 0)
(0.107341 -0.00379011 0)
(0.108055 -0.00396659 0)
(0.108786 -0.00414086 0)
(0.109532 -0.004313 0)
(0.110293 -0.00448304 0)
(0.111067 -0.00465099 0)
(0.111853 -0.00481681 0)
(0.112649 -0.00498047 0)
(0.113454 -0.00514186 0)
(0.114268 -0.00530089 0)
(0.115088 -0.00545742 0)
(0.115915 -0.0056113 0)
(0.116746 -0.00576236 0)
(0.117581 -0.0059104 0)
(0.118419 -0.0060552 0)
(0.119259 -0.00619653 0)
(0.120099 -0.00633413 0)
(0.12094 -0.00646771 0)
(0.121779 -0.00659698 0)
(0.122617 -0.0067216 0)
(0.123452 -0.00684122 0)
(0.124283 -0.00695546 0)
(0.12511 -0.00706391 0)
(0.125931 -0.00716614 0)
(0.126747 -0.00726167 0)
(0.127555 -0.00735 0)
(0.128356 -0.00743058 0)
(0.129149 -0.00750283 0)
(0.129932 -0.00756612 0)
(0.130706 -0.00761977 0)
(0.13147 -0.00766307 0)
(0.132223 -0.00769521 0)
(0.132964 -0.00771537 0)
(0.133694 -0.00772264 0)
(0.134412 -0.00771605 0)
(0.135117 -0.00769455 0)
(0.135809 -0.00765704 0)
(0.136488 -0.00760232 0)
(0.137155 -0.00752912 0)
(0.137809 -0.00743612 0)
(0.13845 -0.00732189 0)
(0.13908 -0.00718497 0)
(0.139698 -0.00702383 0)
(0.140307 -0.00683691 0)
(0.140906 -0.00662264 0)
(0.141498 -0.00637947 0)
(0.142084 -0.00610592 0)
(0.142667 -0.00580065 0)
(0.14325 -0.00546247 0)
(0.143835 -0.00509051 0)
(0.144426 -0.00468423 0)
(0.145027 -0.0042436 0)
(0.145642 -0.00376918 0)
(0.146275 -0.00326225 0)
(0.146932 -0.00272492 0)
(0.147618 -0.0021602 0)
(0.148336 -0.00157204 0)
(0.149091 -0.000965175 0)
(0.149888 -0.000344544 0)
(0.150728 0.000283141 0)
(0.151613 0.000909326 0)
(0.152541 0.00152427 0)
(0.153511 0.00211993 0)
(0.154518 0.00268875 0)
(0.155556 0.00322464 0)
(0.0999953 -0.00032488 0)
(0.100107 -0.00066161 0)
(0.10028 -0.00097064 0)
(0.100507 -0.00126018 0)
(0.10079 -0.00153432 0)
(0.101123 -0.00179547 0)
(0.101501 -0.00204569 0)
(0.101922 -0.00228672 0)
(0.102382 -0.00252001 0)
(0.102876 -0.00274668 0)
(0.103404 -0.00296766 0)
(0.103961 -0.00318369 0)
(0.104546 -0.0033954 0)
(0.105157 -0.00360327 0)
(0.105791 -0.00380771 0)
(0.106446 -0.00400904 0)
(0.107121 -0.00420749 0)
(0.107815 -0.00440327 0)
(0.108525 -0.00459648 0)
(0.109251 -0.00478723 0)
(0.10999 -0.00497555 0)
(0.110741 -0.00516145 0)
(0.111504 -0.00534489 0)
(0.112277 -0.00552581 0)
(0.113059 -0.00570412 0)
(0.113848 -0.00587971 0)
(0.114643 -0.00605242 0)
(0.115445 -0.00622209 0)
(0.11625 -0.00638854 0)
(0.117059 -0.00655154 0)
(0.117871 -0.00671086 0)
(0.118683 -0.00686624 0)
(0.119497 -0.0070174 0)
(0.12031 -0.00716404 0)
(0.121122 -0.00730583 0)
(0.121931 -0.00744242 0)
(0.122738 -0.00757343 0)
(0.123541 -0.00769846 0)
(0.124339 -0.00781708 0)
(0.125132 -0.00792883 0)
(0.125919 -0.00803321 0)
(0.126699 -0.00812972 0)
(0.127472 -0.00821777 0)
(0.128236 -0.00829679 0)
(0.128992 -0.00836613 0)
(0.129739 -0.00842513 0)
(0.130476 -0.00847305 0)
(0.131203 -0.00850914 0)
(0.13192 -0.00853259 0)
(0.132626 -0.00854254 0)
(0.13332 -0.00853806 0)
(0.134004 -0.00851822 0)
(0.134676 -0.00848199 0)
(0.135337 -0.00842832 0)
(0.135987 -0.00835613 0)
(0.136626 -0.00826428 0)
(0.137255 -0.00815162 0)
(0.137875 -0.00801698 0)
(0.138487 -0.0078592 0)
(0.13909 -0.00767717 0)
(0.139688 -0.0074698 0)
(0.140282 -0.00723613 0)
(0.140872 -0.00697533 0)
(0.141463 -0.00668673 0)
(0.142055 -0.00636995 0)
(0.142652 -0.0060249 0)
(0.143256 -0.00565187 0)
(0.143871 -0.0052516 0)
(0.1445 -0.00482536 0)
(0.145146 -0.00437503 0)
(0.145813 -0.00390308 0)
(0.146502 -0.00341267 0)
(0.147218 -0.00290761 0)
(0.147963 -0.00239234 0)
(0.148737 -0.00187175 0)
(0.149543 -0.00135104 0)
(0.150381 -0.000835263 0)
(0.15125 -0.000328899 0)
(0.152148 0.000162096 0)
(0.153071 0.000632496 0)
(0.154014 0.00107808 0)
(0.099991 -0.000354409 0)
(0.100101 -0.000724116 0)
(0.100268 -0.00106455 0)
(0.100487 -0.00138401 0)
(0.100759 -0.00168685 0)
(0.10108 -0.00197557 0)
(0.101446 -0.0022523 0)
(0.101853 -0.00251893 0)
(0.102297 -0.00277696 0)
(0.102776 -0.00302763 0)
(0.103286 -0.00327194 0)
(0.103826 -0.00351071 0)
(0.104393 -0.0037446 0)
(0.104984 -0.00397415 0)
(0.105598 -0.00419981 0)
(0.106233 -0.00442192 0)
(0.106887 -0.00464075 0)
(0.107559 -0.0048565 0)
(0.108247 -0.00506932 0)
(0.108949 -0.00527929 0)
(0.109664 -0.00548647 0)
(0.110392 -0.00569085 0)
(0.11113 -0.00589241 0)
(0.111877 -0.00609107 0)
(0.112633 -0.00628673 0)
(0.113396 -0.00647927 0)
(0.114165 -0.00666853 0)
(0.114939 -0.00685433 0)
(0.115717 -0.00703646 0)
(0.116497 -0.00721468 0)
(0.11728 -0.00738875 0)
(0.118064 -0.00755839 0)
(0.118848 -0.0077233 0)
(0.119632 -0.00788315 0)