/*--------------------------------*- C++ -*----------------------------------*\
| =========                 |                                                 |
| \\      /  F ield         | OpenFOAM: The Open Source CFD Toolbox           |
|  \\    /   O peration     | Version:  2112                                  |
|   \\  /    A nd           | Website:  www.openfoam.com                      |
|    \\/     M anipulation  |                                                 |
\*---------------------------------------------------------------------------*/
FoamFile
{
    version     2.0;
    format      ascii;
    arch        "LSB;label=32;scalar=64";
    class       volVectorField;
    location    "0.8";
    object      flux;
}
// * * * * * * * * * * * * * * * * * * * * * * * * * * * * * * * * * * * * * //

dimensions      [0 1 -1 1 0 0 0];

internalField   nonuniform List<vector> 
512
(
(0.0504755633159 -23.1982445315 0)
(0.136119963818 -22.7867792192 0)
(0.180814891726 -22.0888033565 0)
(0.172178101738 -21.3135694636 0)
(0.114371407784 -20.6867428647 0)
(0.0254021496801 -20.3829706576 0)
(-0.0698694651987 -20.480337859 0)
(-0.147369478606 -20.950753641 0)
(-0.188564399029 -21.6773696739 0)
(-0.182928169488 -22.4826184853 0)
(-0.130697052649 -23.164022377 0)
(-0.044509953932 -23.5450923953 0)
(0.0547596542049 -23.5265549611 0)
(0.146957795285 -23.1033860913 0)
(0.219123331183 -22.3407788011 0)
(0.265022864954 -21.3371652928 0)
(0.279530219768 -20.2047966662 0)
(0.253651186792 -19.0806280834 0)
(0.17624350815 -18.1497245914 0)
(0.0431826114763 -17.6427623385 0)
(-0.132219338147 -17.7830135707 0)
(-0.317134353827 -18.6956962214 0)
(-0.471551579429 -20.3352895566 0)
(-0.567526351341 -22.4972972694 0)
(-0.598922601708 -24.9077683486 0)
(-0.576565968976 -27.3155406712 0)
(-0.517512007252 -29.5386355453 0)
(-0.436961494852 -31.4663791918 0)
(-0.34525918219 -33.0399007885 0)
(-0.248382309417 -34.2310404158 0)
(-0.149435306429 -35.0279931309 0)
(-0.0498489492131 -35.4268393482 0)
(0.15525709282 -23.3002290092 0)
(0.418600623691 -22.8574898075 0)
(0.555789986075 -22.1071907228 0)
(0.528852144161 -21.2754512808 0)
(0.350927995233 -20.6048764255 0)
(0.0778003531607 -20.2814815006 0)
(-0.214022026481 -20.3858019416 0)
(-0.45114642884 -20.8852725724 0)
(-0.577368023144 -21.656146175 0)
(-0.56039818205 -22.5118821235 0)
(-0.400539902363 -23.2372563913 0)
(-0.136756338119 -23.6429746142 0)
(0.166093497835 -23.6255108347 0)
(0.445930284691 -23.1858523004 0)
(0.663987068076 -22.3984372558 0)
(0.802968202495 -21.3665550412 0)
(0.848738384892 -20.1997402629 0)
(0.773884850618 -19.0291030008 0)
(0.542689364318 -18.0403397261 0)
(0.14017289885 -17.4773869728 0)
(-0.394247603329 -17.5861894346 0)
(-0.959003639082 -18.5101406452 0)
(-1.42924894453 -20.2007791465 0)
(-1.71871304469 -22.431221593 0)
(-1.81019909922 -24.9044494377 0)
(-1.73886762939 -27.3576932507 0)
(-1.55790725304 -29.6084425932 0)
(-1.3136711267 -31.5508950918 0)
(-1.03707142981 -33.1314531323 0)
(-0.745663861784 -34.3255466743 0)
(-0.448464159778 -35.1234722255 0)
(-0.149574159465 -35.5225045467 0)
(0.271845164151 -23.5120380696 0)
(0.732639107045 -23.0041814779 0)
(0.971834155092 -22.1449995322 0)
(0.92333525036 -21.1960260838 0)
(0.611356297858 -20.4351451146 0)
(0.134939391637 -20.0718613482 0)
(-0.371765001059 -20.1911913298 0)
(-0.782541595295 -20.7505242231 0)
(-1.00186917459 -21.6121587842 0)
(-0.973483277653 -22.5720505708 0)
(-0.696243298026 -23.3885663531 0)
(-0.238637175651 -23.8446458809 0)
(0.283320811148 -23.8278273361 0)
(0.76049458478 -23.3528772752 0)
(1.12877196076 -22.5146308791 0)
(1.36437136138 -21.4268888922 0)
(1.44825623994 -20.192641614 0)
(1.33335145518 -18.9289076117 0)
(0.952101522175 -17.821109743 0)
(0.270257757249 -17.1405098517 0)
(-0.648596174373 -17.1818736837 0)
(-1.6244292098 -18.1290994048 0)
(-2.43209205329 -19.9274262039 0)
(-2.91936149691 -22.3005039937 0)
(-3.06215843056 -24.9021447751 0)
(-2.92856254673 -27.4464624174 0)
(-2.61411292782 -29.7513027215 0)
(-2.19846676439 -31.7218543919 0)
(-1.73258497344 -33.3155807347 0)
(-1.24439185603 -34.5150547987 0)
(-0.747914242628 -35.3146277597 0)
(-0.249365109833 -35.7139013692 0)
(0.409185388652 -23.8499684372 0)
(1.10211989239 -23.2378097634 0)
(1.45986768314 -22.2043362737 0)
(1.38377935295 -21.0685652237 0)
(0.913010362997 -20.1649640817 0)
(0.199777245547 -19.7404027211 0)
(-0.553353463896 -19.8852961714 0)
(-1.16163015603 -20.5388038109 0)
(-1.48813119702 -21.5420819705 0)
(-1.44860196649 -22.6663985308 0)
(-1.03683755738 -23.6281687558 0)
(-0.356386829647 -24.1625583811 0)
(0.411977800668 -24.1425126147 0)
(1.10252851322 -23.6083695294 0)
(1.62698125955 -22.6906394215 0)
(1.96396283502 -21.521081587 0)
(2.09772902516 -20.1899374548 0)
(1.95965078613 -18.7865463358 0)
(1.4368882443 -17.4917078958 0)
(0.459790928531 -16.6196004159 0)
(-0.888542379886 -16.5474121512 0)
(-2.33177989922 -17.5314955036 0)
(-3.51495123894 -19.5065221804 0)
(-4.20607233028 -22.1087286607 0)
(-4.38317831106 -24.9102165012 0)
(-4.16344660256 -27.5911196637 0)
(-3.69560324032 -29.9737390383 0)
(-3.09581013334 -31.9830148085 0)
(-2.43367163322 -33.5942489776 0)
(-1.74518737427 -34.800518538 0)
(-1.04788744502 -35.6018310156 0)
(-0.349210964218 -36.0011302706 0)
(0.57792450105 -24.3401107949 0)
(1.55545518876 -23.5758866565 0)
(2.05645642491 -22.288362077 0)
(1.94302134637 -20.882066208 0)
(1.27543754917 -19.7739804016 0)
(0.274773346798 -19.2654244409 0)
(-0.770965545973 -19.4509853408 0)
(-1.61093449487 -20.2382705035 0)
(-2.06566653455 -21.4402490968 0)
(-2.01652667026 -22.7997478101 0)
(-1.44432322313 -23.97283009 0)
(-0.495809105101 -24.6171282218 0)
(0.560415236971 -24.5835906072 0)
(1.48643118135 -23.9574345289 0)
(2.17241593194 -22.927079329 0)
(2.61472234474 -21.6529374657 0)
(2.81552386557 -20.2023528693 0)
(2.68246623469 -18.6139014026 0)
(2.03557448211 -17.0532883381 0)
(0.742405629553 -15.8952079889 0)
(-1.10454371821 -15.6452419352 0)
(-3.10398422443 -16.6824094698 0)
(-4.72070863186 -18.9250025262 0)
(-5.62120865729 -21.863260838 0)
(-5.80335393202 -24.9445258993 0)
(-5.46032381529 -27.8064125487 0)
(-4.81006050024 -30.285560604 0)
(-4.00872173405 -32.3397271332 0)
(-3.14133683822 -33.9701825426 0)
(-2.248182875 -35.1832562843 0)
(-1.3482201089 -35.9855700693 0)
(-0.449014737349 -36.3842621979 0)
(0.79129745785 -25.0205143426 0)
(2.12799425133 -24.0439292536 0)
(2.80677790738 -22.4012265462 0)
(2.64097019064 -20.6200517141 0)
(1.72133124651 -19.2320900898 0)
(0.361274775919 -18.6157969676 0)
(-1.03977649516 -18.865014918 0)
(-2.15626203401 -19.8327306229 0)
(-2.76886985036 -21.2975801301 0)
(-2.7148924631 -22.9781089039 0)
(-1.9455277632 -24.447946931 0)
(-0.661767088245 -25.2392537756 0)
(0.741824647118 -25.1707418186 0)
(1.93078415233 -24.4052768493 0)
(2.77922979114 -23.2219937645 0)
(3.32632606486 -21.8262263438 0)
(3.61724705674 -20.2463506576 0)
(3.53418305174 -18.4312116169 0)
(2.79623495114 -16.5109627078 0)
(1.16381412997 -14.9403471434 0)
(-1.28214312035 -14.4177127769 0)
(-3.97166019473 -15.5282887416 0)
(-6.10537692306 -18.165816289 0)
(-7.2158340168 -21.5782431966 0)
(-7.35475416639 -25.0298480067 0)
(-6.83396395494 -28.1135322568 0)
(-5.96226053259 -30.6997536704 0)
(-4.93812110261 -32.7984885296 0)
(-3.85543620878 -34.4465702312 0)
(-2.75288113762 -35.6648097324 0)
(-1.64839040179 -36.466349695 0)
(-0.548557028534 -36.8632369142 0)
(1.06621704554 -25.9443132697 0)
(2.86509908693 -24.6776763138 0)
(3.76839519463 -22.5478878194 0)
(3.52758957456 -20.2588154262 0)
(2.27756492242 -18.4962909734 0)
(0.458310932723 -17.7487162779 0)
(-1.37943237362 -18.0982365675 0)
(-2.82721710094 -19.3016234975 0)
(-3.63835567505 -21.0995896991 0)
(-3.59171007073 -23.2076094059 0)
(-2.57489565898 -25.0910196769 0)
(-0.857206548896 -26.0744987299 0)
(0.977403700126 -25.9301214253 0)
(2.46080520844 -24.9553754842 0)
(3.46194118468 -23.5676345755 0)
(4.10254389817 -22.0429460753 0)
(4.51303122906 -20.3463649863 0)
(4.55016020959 -18.2718026217 0)
(3.78100671883 -15.8780470388 0)
(1.78903059499 -13.7201440029 0)
(-1.39851451729 -12.7784005389 0)
(-4.97803598049 -13.9888508214 0)
(-7.74568585936 -17.2092571127 0)
(-9.05322451612 -21.2797397376 0)
(-9.07099846215 -25.2034295243 0)
(-8.29527664715 -28.5412736623 0)
(-7.15253863664 -31.2320583235 0)
(-5.88213001446 -33.3661530476 0)
(-4.57449743962 -35.0266533487 0)
(-3.25807260688 -36.2467922638 0)
(-1.94743369978 -37.0445673564 0)
(-0.647458346938 -37.4377179647 0)
(1.42461593577 -27.1840697223 0)
(3.82620697644 -25.5264344324 0)
(5.01620835119 -22.7335877856 0)
(4.66676861366 -19.7650761125 0)
(2.97638082067 -17.5058062541 0)
(0.560301978885 -16.6063381751 0)
(-1.81623010497 -17.1168618616 0)
(-3.65693859983 -18.6206465333 0)
(-4.72186280456 -20.8227493493 0)
(-4.71060745197 -23.491800478 0)
(-3.37897242518 -25.9574762616 0)
(-1.08131796246 -27.1899562128 0)
(1.30138626995 -26.8951721626 0)
(3.11202757723 -25.6066174576 0)
(4.2354444956 -23.9452146286 0)
(4.93696085948 -22.3001454545 0)
(5.50281878353 -20.5381830819 0)
(5.76834202549 -18.1893073546 0)
(5.07206426055 -15.1831013706 0)
(2.71363737993 -12.1926699435 0)
(-1.41649652959 -10.5976765373 0)
(-6.18708848164 -11.9434662339 0)
(-9.75082138116 -16.0366559648 0)
(-11.2129202226 -21.0143732515 0)
(-10.9855211287 -25.5198875746 0)
(-9.84827835454 -29.1271764645 0)
(-8.37470022527 -31.8999173236 0)
(-6.83541861522 -34.0486054614 0)
(-5.29575581687 -35.7132197445 0)
(-3.76183814149 -36.9307780947 0)
(-2.24385325222 -37.7203799354 0)
(-0.745132332659 -38.1068986459 0)
(1.89503469051 -28.8375866613 0)
(5.09034005527 -26.6582780215 0)
(6.64907435455 -22.9624683427 0)
(6.14148034034 -19.0932186291 0)
(3.85693389116 -16.1744744567 0)
(0.652783128977 -15.1104952024 0)
(-2.38658655271 -15.8861018252 0)
(-4.68016084481 -17.7639294044 0)
(-6.07393264741 -20.4279068236 0)
(-6.15907352689 -23.8254528398 0)
(-4.42397352638 -27.1307200934 0)
(-1.32605449936 -28.6855723657 0)
(1.76907307773 -28.1068448195 0)
(3.93578397541 -26.3490713057 0)
(5.11517718619 -24.3165237673 0)
(5.80605967155 -22.5841917223 0)
(6.56845027904 -20.8741613827 0)
(7.22770106523 -18.2683879636 0)
(6.77932542438 -14.4812746935 0)
(4.08174301167 -10.3132339383 0)
(-1.2739126625 -7.6785202805 0)
(-7.69752569426 -9.20790458251 0)
(-12.2811393681 -14.6395345895 0)
(-13.794840321 -20.8636351033 0)
(-13.1274000686 -26.0574619717 0)
(-11.4852915216 -29.918263729 0)
(-9.61325313514 -32.7203245793 0)
(-7.78878122495 -34.8486298315 0)
(-6.01558375623 -36.50811518 0)
(-4.26165270229 -37.7183349422 0)
(-2.53549397541 -38.4935709234 0)
(-0.840717702209 -38.8692486601 0)
(2.51427025568 -31.0353412494 0)
(6.76376613575 -28.1685982079 0)
(8.7987380474 -23.2340277973 0)
(8.06076555665 -18.1829902 0)
(4.96774253402 -14.3786126268 0)
(0.704488294625 -13.1538491012 0)
(-3.14294720597 -14.3787805782 0)
(-5.927841099 -16.7095824578 0)
(-7.75262452227 -19.8484826012 0)
(-8.06201408689 -24.1808768128 0)
(-5.80903218814 -28.7401498558 0)
(-1.56938032554 -30.7130278036 0)
(2.46963679994 -29.6115662388 0)
(5.00718810334 -27.1583322225 0)
(6.11788428729 -24.6107106459 0)
(6.65814205179 -22.860413234 0)
(7.66072066288 -21.4316421912 0)
(8.9647853701 -18.6401857763 0)
(9.04964127322 -13.8718807614 0)
(6.11501458642 -8.04749781287 0)
(-0.863831851686 -3.71523098586 0)
(-9.66759563616 -5.4935845632 0)
(-15.5786866416 -13.0410427987 0)
(-16.9218839137 -20.9671819419 0)
(-15.5128354416 -26.9249968353 0)
(-13.1797096583 -30.9707342976 0)
(-10.8398832765 -33.7058580422 0)
(-8.72931391559 -35.7625780954 0)
(-6.73060837225 -37.4120632104 0)
(-4.75456601317 -38.6113820388 0)
(-2.81931011114 -39.3634177929 0)
(-0.93297120099 -39.7221846826 0)
(3.32840621124 -33.9492574881 0)
(8.9909967813 -30.1953025999 0)
(11.6418783585 -23.5340848961 0)
(10.5691879256 -16.9604201282 0)
(6.37150444056 -11.9370729366 0)
(0.652699153306 -10.5839377382 0)
(-4.16445323101 -12.5940569385 0)
(-7.41501185635 -15.4521940154 0)
(-9.80957982492 -18.9695784415 0)
(-10.6049071542 -24.4783763154 0)
(-7.69004902177 -30.9948649931 0)
(-1.76176269083 -33.5076254629 0)
(3.54642086828 -31.4526372912 0)
(6.43621177183 -27.9894296191 0)
(7.26413668046 -24.7036308338 0)
(7.39559389894 -23.05414612 0)
(8.6785640079 -22.3275139806 0)
(11.0075817801 -19.5037353678 0)
(12.0756694061 -13.5238620206 0)
(9.16006789943 -5.40591267653 0)
(0.0030439623373 1.77868309345 0)
(-12.3604316007 -0.33393172138 0)
(-20.0179380575 -11.3447788607 0)
(-20.7368173393 -21.5596814915 0)
(-18.1291762465 -28.2674143326 0)
(-14.875722125 -32.3477219386 0)
(-12.009175034 -34.8578443653 0)
(-9.64188380905 -36.7752310706 0)
(-7.43998572794 -38.4254680393 0)
(-5.23732999356 -39.6131533416 0)
(-3.09089529731 -40.3285099241 0)
(-1.02010114706 -40.661636304 0)
(4.39124769976 -37.8012103375 0)
(11.9713524317 -32.9483318412 0)
(15.4161792833 -23.8117035588 0)
(13.8592715364 -15.3496689892 0)
(8.15598372899 -8.57728107117 0)
(0.375996293681 -7.17244805973 0)
(-5.57707534456 -10.5964815588 0)
(-9.11560185052 -14.0290711495 0)
(-12.2657156723 -17.5918183521 0)
(-14.0746573627 -24.5228646528 0)
(-10.3236567619 -34.2493289092 0)
(-1.79826647457 -37.4428583946 0)
(5.22873472184 -33.6443173438 0)
(8.38169133203 -28.7745714552 0)
(8.58552603686 -24.3857048349 0)
(7.84620047837 -23.0152401 0)
(9.43592603897 -23.7455898087 0)
(13.3666113501 -21.1540544813 0)
(16.0985526188 -13.7079233758 0)
(13.7662871434 -2.52837076922 0)
(1.67215862589 9.59967465688 0)
(-16.2293266132 7.05313687198 0)
(-26.1915615266 -9.84461977641 0)
(-25.3832016496 -23.0260751806 0)
(-20.9068556651 -30.2637847216 0)
(-16.4749246747 -34.114360467 0)
(-13.0536378425 -36.1551035463 0)
(-10.5131257526 -37.8518124153 0)
(-8.14956950775 -39.5516681707 0)
(-5.70608695558 -40.7301158946 0)
(-3.34355159231 -41.3863163518 0)
(-1.09953439091 -41.6814581886 0)
(5.75484545937 -42.866008289 0)
(15.9857501707 -36.7718950378 0)
(20.4412097845 -23.9202001849 0)
(18.1863991694 -13.3159921094 0)
(10.4601149053 -3.87499544256 0)
(-0.356901090493 -2.55307732612 0)
(-7.59276477592 -8.59603775769 0)
(-10.912680253 -12.572616998 0)
(-15.0564765765 -15.3711250171 0)
(-18.9336624327 -23.8675699231 0)
(-14.1500458927 -39.1360208995 0)
(-1.45925690814 -43.1250000206 0)
(7.88056433799 -36.1025559132 0)
(11.0655180263 -29.4381082583 0)
(10.143802358 -23.3116485467 0)
(7.71565141201 -22.449462942 0)
(9.60915681725 -25.9923379589 0)
(16.0264149966 -24.0160698981 0)
(21.3885112621 -14.8232103309 0)
(20.8138669158 0.114349841388 0)
(4.79379778293 21.0917636874 0)
(-22.0825788173 18.0305335558 0)
(-35.0575440838 -9.27102364491 0)
(-30.9463998119 -25.9758956284 0)
(-23.6733188897 -33.104426922 0)
(-17.8213815374 -36.3309633398 0)
(-13.8779010082 -37.5358574438 0)
(-11.3401661212 -38.9251459533 0)
(-8.87913746761 -40.805768959 0)
(-6.1546540841 -41.9750824403 0)
(-3.56656644428 -42.5319332176 0)
(-1.16767206545 -42.7726203333 0)
(7.43830432534 -49.4540415481 0)
(21.4442564838 -42.2845450769 0)
(27.1441307475 -23.4664365711 0)
(23.8818739076 -10.9911026763 0)
(13.5374411206 2.85754710505 0)
(-1.98452486388 3.90804878873 0)
(-10.5868451805 -7.11160922865 0)
(-12.5031454802 -11.4100565373 0)
(-17.9131921348 -11.7252740209 0)
(-25.9571053039 -21.5185473704 0)
(-19.9523718106 -46.8417968662 0)
(-0.281533981413 -51.5591316678 0)
(12.072180603 -38.4703144953 0)
(14.7771450153 -29.9660467892 0)
(12.079848695 -20.9203071988 0)
(6.50585577224 -20.781094034 0)
(8.65262256096 -29.6174440649 0)
(18.9511751641 -28.6806799704 0)
(28.1637624886 -17.3729633311 0)
(31.7237741526 1.24896503081 0)
(10.6302504831 38.5954952602 0)
(-31.4107202794 35.0700503212 0)
(-48.1947761188 -11.3445992068 0)
(-37.2999032881 -31.3178288144 0)
(-26.0843895208 -36.9185987119 0)
(-18.6906399356 -39.0510354011 0)
(-14.3507291493 -38.8685509148 0)
(-12.1480815102 -39.8737306013 0)
(-9.67453775125 -42.2357861769 0)
(-6.56916908486 -43.3710647382 0)
(-3.74232053884 -43.7546781028 0)
(-1.21987794881 -43.9221690654 0)
(9.339593695 -57.8342386857 0)
(28.9795526592 -50.7091437028 0)
(36.0879309848 -21.4266794211 0)
(31.3483910074 -9.00923637458 0)
(17.9096906378 12.7899986641 0)
(-5.34147925734 13.3871296648 0)
(-15.2518174389 -7.30703031264 0)
(-13.2195126491 -11.2428167709 0)
(-20.1107219931 -5.70938870695 0)
(-36.4919238554 -15.2864701443 0)
(-29.1703380413 -59.6984429755 0)
(2.72648427729 -64.4441316871 0)
(18.6771067773 -39.6911833771 0)
(19.8405216746 -30.6285083707 0)
(14.7362787356 -16.3013961012 0)
(3.36708297897 -16.8678032916 0)
(5.65936384906 -35.6847073797 0)
(22.1486553635 -35.9368034093 0)
(36.3533337627 -21.7499196696 0)
(48.7980962114 -2.29610176048 0)
(21.7043404281 66.3187875825 0)
(-47.0526260508 62.8335001862 0)
(-68.2514836516 -20.0268911002 0)
(-43.7333995645 -40.2512536902 0)
(-27.539922183 -41.5982593487 0)
(-18.7963576389 -42.3482964932 0)
(-14.2892486082 -39.9027746894 0)
(-13.0237837523 -40.4815739842 0)
(-10.6278045361 -43.9709840258 0)
(-6.91410004706 -44.953156724 0)
(-3.84211860786 -45.0298954605 0)
(-1.25141754675 -45.1123907091 0)
(11.0008518168 -67.9955784383 0)
(39.6480361161 -64.6730621947 0)
(47.9940844116 -15.1704917736 0)
(40.9902129501 -9.37263559017 0)
(24.7356241403 28.0232218495 0)
(-12.0330393522 28.1893011525 0)
(-22.9018183984 -11.6917613327 0)
(-11.7043246774 -13.4425637588 0)
(-19.9350188215 4.08447777524 0)
(-52.9516324381 -0.345294251099 0)
(-44.531202582 -82.4712639794 0)
(9.72209581781 -84.7033479216 0)
(28.9799922612 -36.98898024 0)
(26.4720386532 -32.6065162955 0)
(18.9602012345 -7.95847188766 0)
(-3.185799867 -8.3911969026 0)
(-0.881877497906 -46.3924282282 0)
(25.9185690192 -46.8018702451 0)
(44.984113313 -27.4427326703 0)
(75.7581277787 -18.130442898 0)
(43.1950514564 112.068261085 0)
(-74.5835596207 110.441909779 0)
(-99.737153057 -44.3670048634 0)
(-48.0855874124 -53.9028278399 0)
(-27.1329109223 -46.4260730044 0)
(-17.842897606 -46.4434977636 0)
(-13.4173678947 -40.179829122 0)
(-14.1821861784 -40.36041252 0)
(-11.9103291212 -46.3319998265 0)
(-7.09862480222 -46.7608275425 0)
(-3.82193753137 -46.3024394927 0)
(-1.26112557311 -46.3218555454 0)
)
;

boundaryField
{
    left
    {
        type            calculated;
        value           nonuniform List<vector> 
16
(
(0 -23.1982445315 0)
(0 -23.3002290092 0)
(0 -23.5120380696 0)
(0 -23.8499684372 0)
(0 -24.3401107949 0)
(0 -25.0205143426 0)
(0 -25.9443132697 0)
(0 -27.1840697223 0)
(0 -28.8375866613 0)
(0 -31.0353412494 0)
(0 -33.9492574881 0)
(0 -37.8012103375 0)
(0 -42.866008289 0)
(0 -49.4540415481 0)
(0 -57.8342386857 0)
(0 -67.9955784383 0)
)
;
    }
    right
    {
        type            calculated;
        value           nonuniform List<vector> 
16
(
(0 -35.4268393482 0)
(0 -35.5225045467 0)
(0 -35.7139013692 0)
(0 -36.0011302706 0)
(0 -36.3842621979 0)
(0 -36.8632369142 0)
(0 -37.4377179647 0)
(0 -38.1068986459 0)
(0 -38.8692486601 0)
(0 -39.7221846826 0)
(0 -40.661636304 0)
(0 -41.6814581886 0)
(0 -42.7726203333 0)
(0 -43.9221690654 0)
(0 -45.1123907091 0)
(0 -46.3218555454 0)
)
;
    }
    interface
    {
        type            calculated;
        value           nonuniform List<vector> 
32
(
(11.0008518168 -73.4915395232 0)
(39.6480361161 -73.4915395232 0)
(47.9940844116 -10.5153000214 0)
(40.9902129501 -10.5153000214 0)
(24.7356241403 37.3048394539 0)
(-12.0330393522 37.3048394539 0)
(-22.9018183984 -15.358886531 0)
(-11.7043246774 -15.358886531 0)
(-19.9350188215 10.132839798 0)
(-52.9516324381 10.132839798 0)
(-44.531202582 -97.1398093803 0)
(9.72209581781 -97.1398093803 0)
(28.9799922612 -34.1576880637 0)
(26.4720386532 -34.1576880637 0)
(18.9602012345 -2.6227392735 0)
(-3.185799867 -2.6227392735 0)
(-0.881877497906 -53.2791205707 0)
(25.9185690192 -53.2791205707 0)
(44.984113313 -30.4593840775 0)
(75.7581277787 -30.4593840775 0)
(43.1950514564 140.722477163 0)
(-74.5835596207 140.722477163 0)
(-99.737153057 -62.0243204532 0)
(-48.0855874124 -62.0243204532 0)
(-27.1329109223 -48.7337053434 0)
(-17.842897606 -48.7337053434 0)
(-13.4173678947 -40.05505771 0)
(-14.1821861784 -40.05505771 0)
(-11.9103291212 -47.7257894147 0)
(-7.09862480222 -47.7257894147 0)
(-3.82193753137 -46.9285697265 0)
(-1.26112557311 -46.9285697265 0)
)
;
    }
    bottom
    {
        type            calculated;
        value           nonuniform List<vector> 
32
(
(0.0504755633159 -23.1732289335 0)
(0.136119963818 -22.769424427 0)
(0.180814891726 -22.084269223 0)
(0.172178101738 -21.3229052932 0)
(0.114371407784 -20.7068444091 0)
(0.0254021496801 -20.4079340309 0)
(-0.0698694651987 -20.5036272116 0)
(-0.147369478606 -20.9668897525 0)
(-0.188564399029 -21.6825830405 0)
(-0.182928169488 -22.4754049448 0)
(-0.130697052649 -23.1460083964 0)
(-0.044509953932 -23.5209813659 0)
(0.0547596542049 -23.5020880278 0)
(0.146957795285 -23.0829041323 0)
(0.219123331183 -22.3264256656 0)
(0.265022864954 -21.3299174828 0)
(0.279530219768 -20.2062427459 0)
(0.253651186792 -19.0936757247 0)
(0.17624350815 -18.1770332516 0)
(0.0431826114763 -17.6837276595 0)
(-0.132219338147 -17.8315723598 0)
(-0.317134353827 -18.7414823647 0)
(-0.471551579429 -20.3686471904 0)
(-0.567526351341 -22.5138950001 0)
(-0.598922601708 -24.9088580011 0)
(-0.576565968976 -27.3052758138 0)
(-0.517512007252 -29.5213857529 0)
(-0.436961494852 -31.4453718718 0)
(-0.34525918219 -33.0170777117 0)
(-0.248382309417 -34.2074453293 0)
(-0.149435306429 -35.004136187 0)
(-0.0498489492131 -35.4029277807 0)
)
;
    }
    defaultFaces
    {
        type            empty;
    }
}


// ************************************************************************* //
