/*--------------------------------*- C++ -*----------------------------------*\
| =========                 |                                                 |
| \\      /  F ield         | OpenFOAM: The Open Source CFD Toolbox           |
|  \\    /   O peration     | Version:  2112                                  |
|   \\  /    A nd           | Website:  www.openfoam.com                      |
|    \\/     M anipulation  |                                                 |
\*---------------------------------------------------------------------------*/
FoamFile
{
    version     2.0;
    format      ascii;
    arch        "LSB;label=32;scalar=64";
    class       volScalarField;
    location    "0.8";
    object      gradTy;
}
// * * * * * * * * * * * * * * * * * * * * * * * * * * * * * * * * * * * * * //

dimensions      [0 -1 0 1 0 0 0];

internalField   nonuniform List<scalar> 
512
(
-23.1982445315
-22.7867792192
-22.0888033565
-21.3135694636
-20.6867428647
-20.3829706576
-20.480337859
-20.950753641
-21.6773696739
-22.4826184853
-23.164022377
-23.5450923953
-23.5265549611
-23.1033860913
-22.3407788011
-21.3371652928
-20.2047966662
-19.0806280834
-18.1497245914
-17.6427623385
-17.7830135707
-18.6956962214
-20.3352895566
-22.4972972694
-24.9077683486
-27.3155406712
-29.5386355453
-31.4663791918
-33.0399007885
-34.2310404158
-35.0279931309
-35.4268393482
-23.3002290092
-22.8574898075
-22.1071907228
-21.2754512808
-20.6048764255
-20.2814815006
-20.3858019416
-20.8852725724
-21.656146175
-22.5118821235
-23.2372563913
-23.6429746142
-23.6255108347
-23.1858523004
-22.3984372558
-21.3665550412
-20.1997402629
-19.0291030008
-18.0403397261
-17.4773869728
-17.5861894346
-18.5101406452
-20.2007791465
-22.431221593
-24.9044494377
-27.3576932507
-29.6084425932
-31.5508950918
-33.1314531323
-34.3255466743
-35.1234722255
-35.5225045467
-23.5120380696
-23.0041814779
-22.1449995322
-21.1960260838
-20.4351451146
-20.0718613482
-20.1911913298
-20.7505242231
-21.6121587842
-22.5720505708
-23.3885663531
-23.8446458809
-23.8278273361
-23.3528772752
-22.5146308791
-21.4268888922
-20.192641614
-18.9289076117
-17.821109743
-17.1405098517
-17.1818736837
-18.1290994048
-19.9274262039
-22.3005039937
-24.9021447751
-27.4464624174
-29.7513027215
-31.7218543919
-33.3155807347
-34.5150547987
-35.3146277597
-35.7139013692
-23.8499684372
-23.2378097634
-22.2043362737
-21.0685652237
-20.1649640817
-19.7404027211
-19.8852961714
-20.5388038109
-21.5420819705
-22.6663985308
-23.6281687558
-24.1625583811
-24.1425126147
-23.6083695294
-22.6906394215
-21.521081587
-20.1899374548
-18.7865463358
-17.4917078958
-16.6196004159
-16.5474121512
-17.5314955036
-19.5065221804
-22.1087286607
-24.9102165012
-27.5911196637
-29.9737390383
-31.9830148085
-33.5942489776
-34.800518538
-35.6018310156
-36.0011302706
-24.3401107949
-23.5758866565
-22.288362077
-20.882066208
-19.7739804016
-19.2654244409
-19.4509853408
-20.2382705035
-21.4402490968
-22.7997478101
-23.97283009
-24.6171282218
-24.5835906072
-23.9574345289
-22.927079329
-21.6529374657
-20.2023528693
-18.6139014026
-17.0532883381
-15.8952079889
-15.6452419352
-16.6824094698
-18.9250025262
-21.863260838
-24.9445258993
-27.8064125487
-30.285560604
-32.3397271332
-33.9701825426
-35.1832562843
-35.9855700693
-36.3842621979
-25.0205143426
-24.0439292536
-22.4012265462
-20.6200517141
-19.2320900898
-18.6157969676
-18.865014918
-19.8327306229
-21.2975801301
-22.9781089039
-24.447946931
-25.2392537756
-25.1707418186
-24.4052768493
-23.2219937645
-21.8262263438
-20.2463506576
-18.4312116169
-16.5109627078
-14.9403471434
-14.4177127769
-15.5282887416
-18.165816289
-21.5782431966
-25.0298480067
-28.1135322568
-30.6997536704
-32.7984885296
-34.4465702312
-35.6648097324
-36.466349695
-36.8632369142
-25.9443132697
-24.6776763138
-22.5478878194
-20.2588154262
-18.4962909734
-17.7487162779
-18.0982365675
-19.3016234975
-21.0995896991
-23.2076094059
-25.0910196769
-26.0744987299
-25.9301214253
-24.9553754842
-23.5676345755
-22.0429460753
-20.3463649863
-18.2718026217
-15.8780470388
-13.7201440029
-12.7784005389
-13.9888508214
-17.2092571127
-21.2797397376
-25.2034295243
-28.5412736623
-31.2320583235
-33.3661530476
-35.0266533487
-36.2467922638
-37.0445673564
-37.4377179647
-27.1840697223
-25.5264344324
-22.7335877856
-19.7650761125
-17.5058062541
-16.6063381751
-17.1168618616
-18.6206465333
-20.8227493493
-23.491800478
-25.9574762616
-27.1899562128
-26.8951721626
-25.6066174576
-23.9452146286
-22.3001454545
-20.5381830819
-18.1893073546
-15.1831013706
-12.1926699435
-10.5976765373
-11.9434662339
-16.0366559648
-21.0143732515
-25.5198875746
-29.1271764645
-31.8999173236
-34.0486054614
-35.7132197445
-36.9307780947
-37.7203799354
-38.1068986459
-28.8375866613
-26.6582780215
-22.9624683427
-19.0932186291
-16.1744744567
-15.1104952024
-15.8861018252
-17.7639294044
-20.4279068236
-23.8254528398
-27.1307200934
-28.6855723657
-28.1068448195
-26.3490713057
-24.3165237673
-22.5841917223
-20.8741613827
-18.2683879636
-14.4812746935
-10.3132339383
-7.6785202805
-9.20790458251
-14.6395345895
-20.8636351033
-26.0574619717
-29.918263729
-32.7203245793
-34.8486298315
-36.50811518
-37.7183349422
-38.4935709234
-38.8692486601
-31.0353412494
-28.1685982079
-23.2340277973
-18.1829902
-14.3786126268
-13.1538491012
-14.3787805782
-16.7095824578
-19.8484826012
-24.1808768128
-28.7401498558
-30.7130278036
-29.6115662388
-27.1583322225
-24.6107106459
-22.860413234
-21.4316421912
-18.6401857763
-13.8718807614
-8.04749781287
-3.71523098586
-5.4935845632
-13.0410427987
-20.9671819419
-26.9249968353
-30.9707342976
-33.7058580422
-35.7625780954
-37.4120632104
-38.6113820388
-39.3634177929
-39.7221846826
-33.9492574881
-30.1953025999
-23.5340848961
-16.9604201282
-11.9370729366
-10.5839377382
-12.5940569385
-15.4521940154
-18.9695784415
-24.4783763154
-30.9948649931
-33.5076254629
-31.4526372912
-27.9894296191
-24.7036308338
-23.05414612
-22.3275139806
-19.5037353678
-13.5238620206
-5.40591267653
1.77868309345
-0.33393172138
-11.3447788607
-21.5596814915
-28.2674143326
-32.3477219386
-34.8578443653
-36.7752310706
-38.4254680393
-39.6131533416
-40.3285099241
-40.661636304
-37.8012103375
-32.9483318412
-23.8117035588
-15.3496689892
-8.57728107117
-7.17244805973
-10.5964815588
-14.0290711495
-17.5918183521
-24.5228646528
-34.2493289092
-37.4428583946
-33.6443173438
-28.7745714552
-24.3857048349
-23.0152401
-23.7455898087
-21.1540544813
-13.7079233758
-2.52837076922
9.59967465688
7.05313687198
-9.84461977641
-23.0260751806
-30.2637847216
-34.114360467
-36.1551035463
-37.8518124153
-39.5516681707
-40.7301158946
-41.3863163518
-41.6814581886
-42.866008289
-36.7718950378
-23.9202001849
-13.3159921094
-3.87499544256
-2.55307732612
-8.59603775769
-12.572616998
-15.3711250171
-23.8675699231
-39.1360208995
-43.1250000206
-36.1025559132
-29.4381082583
-23.3116485467
-22.449462942
-25.9923379589
-24.0160698981
-14.8232103309
0.114349841388
21.0917636874
18.0305335558
-9.27102364491
-25.9758956284
-33.104426922
-36.3309633398
-37.5358574438
-38.9251459533
-40.805768959
-41.9750824403
-42.5319332176
-42.7726203333
-49.4540415481
-42.2845450769
-23.4664365711
-10.9911026763
2.85754710505
3.90804878873
-7.11160922865
-11.4100565373
-11.7252740209
-21.5185473704
-46.8417968662
-51.5591316678
-38.4703144953
-29.9660467892
-20.9203071988
-20.781094034
-29.6174440649
-28.6806799704
-17.3729633311
1.24896503081
38.5954952602
35.0700503212
-11.3445992068
-31.3178288144
-36.9185987119
-39.0510354011
-38.8685509148
-39.8737306013
-42.2357861769
-43.3710647382
-43.7546781028
-43.9221690654
-57.8342386857
-50.7091437028
-21.4266794211
-9.00923637458
12.7899986641
13.3871296648
-7.30703031264
-11.2428167709
-5.70938870695
-15.2864701443
-59.6984429755
-64.4441316871
-39.6911833771
-30.6285083707
-16.3013961012
-16.8678032916
-35.6847073797
-35.9368034093
-21.7499196696
-2.29610176048
66.3187875825
62.8335001862
-20.0268911002
-40.2512536902
-41.5982593487
-42.3482964932
-39.9027746894
-40.4815739842
-43.9709840258
-44.953156724
-45.0298954605
-45.1123907091
-67.9955784383
-64.6730621947
-15.1704917736
-9.37263559017
28.0232218495
28.1893011525
-11.6917613327
-13.4425637588
4.08447777524
-0.345294251099
-82.4712639794
-84.7033479216
-36.98898024
-32.6065162955
-7.95847188766
-8.3911969026
-46.3924282282
-46.8018702451
-27.4427326703
-18.130442898
112.068261085
110.441909779
-44.3670048634
-53.9028278399
-46.4260730044
-46.4434977636
-40.179829122
-40.36041252
-46.3319998265
-46.7608275425
-46.3024394927
-46.3218555454
)
;

boundaryField
{
    left
    {
        type            calculated;
        value           nonuniform List<scalar> 
16
(
-23.1982445315
-23.3002290092
-23.5120380696
-23.8499684372
-24.3401107949
-25.0205143426
-25.9443132697
-27.1840697223
-28.8375866613
-31.0353412494
-33.9492574881
-37.8012103375
-42.866008289
-49.4540415481
-57.8342386857
-67.9955784383
)
;
    }
    right
    {
        type            calculated;
        value           nonuniform List<scalar> 
16
(
-35.4268393482
-35.5225045467
-35.7139013692
-36.0011302706
-36.3842621979
-36.8632369142
-37.4377179647
-38.1068986459
-38.8692486601
-39.7221846826
-40.661636304
-41.6814581886
-42.7726203333
-43.9221690654
-45.1123907091
-46.3218555454
)
;
    }
    interface
    {
        type            calculated;
        value           nonuniform List<scalar> 
32
(
-73.4915395232
-73.4915395232
-10.5153000214
-10.5153000214
37.3048394539
37.3048394539
-15.358886531
-15.358886531
10.132839798
10.132839798
-97.1398093803
-97.1398093803
-34.1576880637
-34.1576880637
-2.6227392735
-2.6227392735
-53.2791205707
-53.2791205707
-30.4593840775
-30.4593840775
140.722477163
140.722477163
-62.0243204532
-62.0243204532
-48.7337053434
-48.7337053434
-40.05505771
-40.05505771
-47.7257894147
-47.7257894147
-46.9285697265
-46.9285697265
)
;
    }
    bottom
    {
        type            calculated;
        value           nonuniform List<scalar> 
32
(
-23.1732289335
-22.769424427
-22.084269223
-21.3229052932
-20.7068444091
-20.4079340309
-20.5036272116
-20.9668897525
-21.6825830405
-22.4754049448
-23.1460083964
-23.5209813659
-23.5020880278
-23.0829041323
-22.3264256656
-21.3299174828
-20.2062427459
-19.0936757247
-18.1770332516
-17.6837276595
-17.8315723598
-18.7414823647
-20.3686471904
-22.5138950001
-24.9088580011
-27.3052758138
-29.5213857529
-31.4453718718
-33.0170777117
-34.2074453293
-35.004136187
-35.4029277807
)
;
    }
    defaultFaces
    {
        type            empty;
    }
}


// ************************************************************************* //
