/*--------------------------------*- C++ -*----------------------------------*\
| =========                 |                                                 |
| \\      /  F ield         | OpenFOAM: The Open Source CFD Toolbox           |
|  \\    /   O peration     | Version:  2112                                  |
|   \\  /    A nd           | Website:  www.openfoam.com                      |
|    \\/     M anipulation  |                                                 |
\*---------------------------------------------------------------------------*/
FoamFile
{
    version     2.0;
    format      ascii;
    arch        "LSB;label=32;scalar=64";
    class       volScalarField;
    location    "0.8";
    object      gradTx;
}
// * * * * * * * * * * * * * * * * * * * * * * * * * * * * * * * * * * * * * //

dimensions      [0 -1 0 1 0 0 0];

internalField   nonuniform List<scalar> 
512
(
0.0504755633159
0.136119963818
0.180814891726
0.172178101738
0.114371407784
0.0254021496801
-0.0698694651987
-0.147369478606
-0.188564399029
-0.182928169488
-0.130697052649
-0.044509953932
0.0547596542049
0.146957795285
0.219123331183
0.265022864954
0.279530219768
0.253651186792
0.17624350815
0.0431826114763
-0.132219338147
-0.317134353827
-0.471551579429
-0.567526351341
-0.598922601708
-0.576565968976
-0.517512007252
-0.436961494852
-0.34525918219
-0.248382309417
-0.149435306429
-0.0498489492131
0.15525709282
0.418600623691
0.555789986075
0.528852144161
0.350927995233
0.0778003531607
-0.214022026481
-0.45114642884
-0.577368023144
-0.56039818205
-0.400539902363
-0.136756338119
0.166093497835
0.445930284691
0.663987068076
0.802968202495
0.848738384892
0.773884850618
0.542689364318
0.14017289885
-0.394247603329
-0.959003639082
-1.42924894453
-1.71871304469
-1.81019909922
-1.73886762939
-1.55790725304
-1.3136711267
-1.03707142981
-0.745663861784
-0.448464159778
-0.149574159465
0.271845164151
0.732639107045
0.971834155092
0.92333525036
0.611356297858
0.134939391637
-0.371765001059
-0.782541595295
-1.00186917459
-0.973483277653
-0.696243298026
-0.238637175651
0.283320811148
0.76049458478
1.12877196076
1.36437136138
1.44825623994
1.33335145518
0.952101522175
0.270257757249
-0.648596174373
-1.6244292098
-2.43209205329
-2.91936149691
-3.06215843056
-2.92856254673
-2.61411292782
-2.19846676439
-1.73258497344
-1.24439185603
-0.747914242628
-0.249365109833
0.409185388652
1.10211989239
1.45986768314
1.38377935295
0.913010362997
0.199777245547
-0.553353463896
-1.16163015603
-1.48813119702
-1.44860196649
-1.03683755738
-0.356386829647
0.411977800668
1.10252851322
1.62698125955
1.96396283502
2.09772902516
1.95965078613
1.4368882443
0.459790928531
-0.888542379886
-2.33177989922
-3.51495123894
-4.20607233028
-4.38317831106
-4.16344660256
-3.69560324032
-3.09581013334
-2.43367163322
-1.74518737427
-1.04788744502
-0.349210964218
0.57792450105
1.55545518876
2.05645642491
1.94302134637
1.27543754917
0.274773346798
-0.770965545973
-1.61093449487
-2.06566653455
-2.01652667026
-1.44432322313
-0.495809105101
0.560415236971
1.48643118135
2.17241593194
2.61472234474
2.81552386557
2.68246623469
2.03557448211
0.742405629553
-1.10454371821
-3.10398422443
-4.72070863186
-5.62120865729
-5.80335393202
-5.46032381529
-4.81006050024
-4.00872173405
-3.14133683822
-2.248182875
-1.3482201089
-0.449014737349
0.79129745785
2.12799425133
2.80677790738
2.64097019064
1.72133124651
0.361274775919
-1.03977649516
-2.15626203401
-2.76886985036
-2.7148924631
-1.9455277632
-0.661767088245
0.741824647118
1.93078415233
2.77922979114
3.32632606486
3.61724705674
3.53418305174
2.79623495114
1.16381412997
-1.28214312035
-3.97166019473
-6.10537692306
-7.2158340168
-7.35475416639
-6.83396395494
-5.96226053259
-4.93812110261
-3.85543620878
-2.75288113762
-1.64839040179
-0.548557028534
1.06621704554
2.86509908693
3.76839519463
3.52758957456
2.27756492242
0.458310932723
-1.37943237362
-2.82721710094
-3.63835567505
-3.59171007073
-2.57489565898
-0.857206548896
0.977403700126
2.46080520844
3.46194118468
4.10254389817
4.51303122906
4.55016020959
3.78100671883
1.78903059499
-1.39851451729
-4.97803598049
-7.74568585936
-9.05322451612
-9.07099846215
-8.29527664715
-7.15253863664
-5.88213001446
-4.57449743962
-3.25807260688
-1.94743369978
-0.647458346938
1.42461593577
3.82620697644
5.01620835119
4.66676861366
2.97638082067
0.560301978885
-1.81623010497
-3.65693859983
-4.72186280456
-4.71060745197
-3.37897242518
-1.08131796246
1.30138626995
3.11202757723
4.2354444956
4.93696085948
5.50281878353
5.76834202549
5.07206426055
2.71363737993
-1.41649652959
-6.18708848164
-9.75082138116
-11.2129202226
-10.9855211287
-9.84827835454
-8.37470022527
-6.83541861522
-5.29575581687
-3.76183814149
-2.24385325222
-0.745132332659
1.89503469051
5.09034005527
6.64907435455
6.14148034034
3.85693389116
0.652783128977
-2.38658655271
-4.68016084481
-6.07393264741
-6.15907352689
-4.42397352638
-1.32605449936
1.76907307773
3.93578397541
5.11517718619
5.80605967155
6.56845027904
7.22770106523
6.77932542438
4.08174301167
-1.2739126625
-7.69752569426
-12.2811393681
-13.794840321
-13.1274000686
-11.4852915216
-9.61325313514
-7.78878122495
-6.01558375623
-4.26165270229
-2.53549397541
-0.840717702209
2.51427025568
6.76376613575
8.7987380474
8.06076555665
4.96774253402
0.704488294625
-3.14294720597
-5.927841099
-7.75262452227
-8.06201408689
-5.80903218814
-1.56938032554
2.46963679994
5.00718810334
6.11788428729
6.65814205179
7.66072066288
8.9647853701
9.04964127322
6.11501458642
-0.863831851686
-9.66759563616
-15.5786866416
-16.9218839137
-15.5128354416
-13.1797096583
-10.8398832765
-8.72931391559
-6.73060837225
-4.75456601317
-2.81931011114
-0.93297120099
3.32840621124
8.9909967813
11.6418783585
10.5691879256
6.37150444056
0.652699153306
-4.16445323101
-7.41501185635
-9.80957982492
-10.6049071542
-7.69004902177
-1.76176269083
3.54642086828
6.43621177183
7.26413668046
7.39559389894
8.6785640079
11.0075817801
12.0756694061
9.16006789943
0.0030439623373
-12.3604316007
-20.0179380575
-20.7368173393
-18.1291762465
-14.875722125
-12.009175034
-9.64188380905
-7.43998572794
-5.23732999356
-3.09089529731
-1.02010114706
4.39124769976
11.9713524317
15.4161792833
13.8592715364
8.15598372899
0.375996293681
-5.57707534456
-9.11560185052
-12.2657156723
-14.0746573627
-10.3236567619
-1.79826647457
5.22873472184
8.38169133203
8.58552603686
7.84620047837
9.43592603897
13.3666113501
16.0985526188
13.7662871434
1.67215862589
-16.2293266132
-26.1915615266
-25.3832016496
-20.9068556651
-16.4749246747
-13.0536378425
-10.5131257526
-8.14956950775
-5.70608695558
-3.34355159231
-1.09953439091
5.75484545937
15.9857501707
20.4412097845
18.1863991694
10.4601149053
-0.356901090493
-7.59276477592
-10.912680253
-15.0564765765
-18.9336624327
-14.1500458927
-1.45925690814
7.88056433799
11.0655180263
10.143802358
7.71565141201
9.60915681725
16.0264149966
21.3885112621
20.8138669158
4.79379778293
-22.0825788173
-35.0575440838
-30.9463998119
-23.6733188897
-17.8213815374
-13.8779010082
-11.3401661212
-8.87913746761
-6.1546540841
-3.56656644428
-1.16767206545
7.43830432534
21.4442564838
27.1441307475
23.8818739076
13.5374411206
-1.98452486388
-10.5868451805
-12.5031454802
-17.9131921348
-25.9571053039
-19.9523718106
-0.281533981413
12.072180603
14.7771450153
12.079848695
6.50585577224
8.65262256096
18.9511751641
28.1637624886
31.7237741526
10.6302504831
-31.4107202794
-48.1947761188
-37.2999032881
-26.0843895208
-18.6906399356
-14.3507291493
-12.1480815102
-9.67453775125
-6.56916908486
-3.74232053884
-1.21987794881
9.339593695
28.9795526592
36.0879309848
31.3483910074
17.9096906378
-5.34147925734
-15.2518174389
-13.2195126491
-20.1107219931
-36.4919238554
-29.1703380413
2.72648427729
18.6771067773
19.8405216746
14.7362787356
3.36708297897
5.65936384906
22.1486553635
36.3533337627
48.7980962114
21.7043404281
-47.0526260508
-68.2514836516
-43.7333995645
-27.539922183
-18.7963576389
-14.2892486082
-13.0237837523
-10.6278045361
-6.91410004706
-3.84211860786
-1.25141754675
11.0008518168
39.6480361161
47.9940844116
40.9902129501
24.7356241403
-12.0330393522
-22.9018183984
-11.7043246774
-19.9350188215
-52.9516324381
-44.531202582
9.72209581781
28.9799922612
26.4720386532
18.9602012345
-3.185799867
-0.881877497906
25.9185690192
44.984113313
75.7581277787
43.1950514564
-74.5835596207
-99.737153057
-48.0855874124
-27.1329109223
-17.842897606
-13.4173678947
-14.1821861784
-11.9103291212
-7.09862480222
-3.82193753137
-1.26112557311
)
;

boundaryField
{
    left
    {
        type            calculated;
        value           uniform 0;
    }
    right
    {
        type            calculated;
        value           uniform 0;
    }
    interface
    {
        type            calculated;
        value           nonuniform List<scalar> 
32
(
11.0008518168
39.6480361161
47.9940844116
40.9902129501
24.7356241403
-12.0330393522
-22.9018183984
-11.7043246774
-19.9350188215
-52.9516324381
-44.531202582
9.72209581781
28.9799922612
26.4720386532
18.9602012345
-3.185799867
-0.881877497906
25.9185690192
44.984113313
75.7581277787
43.1950514564
-74.5835596207
-99.737153057
-48.0855874124
-27.1329109223
-17.842897606
-13.4173678947
-14.1821861784
-11.9103291212
-7.09862480222
-3.82193753137
-1.26112557311
)
;
    }
    bottom
    {
        type            calculated;
        value           nonuniform List<scalar> 
32
(
0.0504755633159
0.136119963818
0.180814891726
0.172178101738
0.114371407784
0.0254021496801
-0.0698694651987
-0.147369478606
-0.188564399029
-0.182928169488
-0.130697052649
-0.044509953932
0.0547596542049
0.146957795285
0.219123331183
0.265022864954
0.279530219768
0.253651186792
0.17624350815
0.0431826114763
-0.132219338147
-0.317134353827
-0.471551579429
-0.567526351341
-0.598922601708
-0.576565968976
-0.517512007252
-0.436961494852
-0.34525918219
-0.248382309417
-0.149435306429
-0.0498489492131
)
;
    }
    defaultFaces
    {
        type            empty;
    }
}


// ************************************************************************* //
