/*--------------------------------*- C++ -*----------------------------------*\
| =========                 |                                                 |
| \\      /  F ield         | OpenFOAM: The Open Source CFD Toolbox           |
|  \\    /   O peration     | Version:  2112                                  |
|   \\  /    A nd           | Website:  www.openfoam.com                      |
|    \\/     M anipulation  |                                                 |
\*---------------------------------------------------------------------------*/
FoamFile
{
    version     2.0;
    format      ascii;
    arch        "LSB;label=32;scalar=64";
    class       volScalarField;
    location    "0.8";
    object      T;
}
// * * * * * * * * * * * * * * * * * * * * * * * * * * * * * * * * * * * * * //

dimensions      [0 0 0 1 0 0 0];

internalField   nonuniform List<scalar> 
512
(
309.818982174
309.822139489
309.827496671
309.833450984
309.838270534
309.840612213
309.839870237
309.83625676
309.830670993
309.824482979
309.819251137
309.816330817
309.816489795
309.819778224
309.825703642
309.833505902
309.842302893
309.851013699
309.858193377
309.862063731
309.860921604
309.853821159
309.841112766
309.824353721
309.805642384
309.78691935
309.769605347
309.754573782
309.742294588
309.732994763
309.726770346
309.723654614
309.456164649
309.465876264
309.482348923
309.500645559
309.515440723
309.522618091
309.5203401
309.509275961
309.492177238
309.473224871
309.457191901
309.448240609
309.448706755
309.458697025
309.476665319
309.500294648
309.526957864
309.553453512
309.575439006
309.58747758
309.584289
309.562901181
309.524387468
309.473586288
309.416967404
309.360443315
309.308282942
309.263070855
309.226176559
309.198253004
309.179571543
309.170222399
309.090941543
309.107946066
309.136769701
309.168742135
309.194544277
309.207019425
309.203040983
309.183841542
309.154187966
309.121281841
309.093411349
309.077849936
309.078601823
309.095686049
309.126282443
309.166401726
309.211737616
309.257109747
309.295265942
309.316798004
309.312310084
309.276369871
309.21084354
309.124384396
309.028380613
308.932988849
308.845335978
308.769601192
308.707928674
308.661313166
308.630152271
308.614565094
308.721504327
308.747099786
308.790444004
308.838425503
308.877027627
308.895586782
308.889604449
308.861083362
308.817080139
308.76815466
308.726635239
308.703470577
308.704512205
308.729404748
308.773636502
308.83133252
308.896646384
308.962718116
309.019406506
309.052789776
309.048367529
308.997413947
308.902715406
308.77775392
308.639827264
308.503787154
308.37959709
308.272803701
308.18610451
308.120696757
308.077026731
308.055197678
308.345719642
308.381870053
308.443015633
308.510515326
308.564588704
308.590362957
308.581882686
308.542283268
308.481298268
308.413280334
308.355384497
308.323164697
308.324597176
308.358439039
308.417788831
308.494537572
308.581558772
308.670879644
308.749594006
308.798465987
308.796300706
308.729645009
308.602408816
308.434624166
308.2510633
308.071885318
307.909771582
307.771245126
307.659220161
307.574907228
307.518702483
307.490634184
307.960962653
308.010459841
308.094070892
308.186040429
308.259310272
308.293796828
308.282043411
308.228941791
308.147396896
308.056009152
307.977860783
307.9346058
307.93675562
307.981289072
308.057802112
308.155403834
308.266144172
308.381959216
308.487525945
308.557201603
308.560669439
308.477344331
308.312568799
308.095772276
307.861539406
307.636054693
307.434386685
307.263398276
307.125745014
307.022426097
306.953680179
306.919389544
307.563909935
307.630603479
307.743123709
307.866335877
307.963831865
308.008905183
307.992666347
307.922847809
307.816105104
307.695590714
307.591791302
307.534890294
307.538532024
307.596378902
307.692799946
307.813265114
307.94976354
308.095926372
308.234777968
308.332856904
308.347120234
308.24580265
308.036137976
307.76168815
307.470239442
307.194682363
306.951744392
306.747629605
306.584098298
306.461711636
306.380455091
306.339983309
307.150274873
307.239386055
307.389605181
307.553172118
307.681581601
307.739476308
307.716831672
307.626145743
307.488431372
307.331184571
307.194205791
307.120267681
307.127008541
307.202101477
307.322089197
307.467447821
307.631324063
307.812105999
307.99263437
308.129902364
308.162922182
308.041818576
307.776383012
307.432337959
307.075453207
306.745643376
306.459884231
306.222202342
306.032652798
305.891199686
305.797520436
305.750945642
306.714464564
306.832999717
307.032865169
307.248925399
307.417100569
307.490337062
307.458176896
307.341385544
307.165841702
306.961930278
306.781098921
306.685737151
306.698685282
306.796917725
306.945383519
307.11738054
307.309069806
307.528792859
307.761781407
307.953515667
308.017784497
307.874464065
307.536836734
307.106758023
306.674460746
306.286155726
305.956568337
305.685304875
305.469746408
305.309305007
305.2033722
305.150826208
306.249133374
306.406400377
306.672205066
306.956793114
307.176512643
307.267721652
307.220871327
307.071521696
306.850570096
306.587151785
306.346892632
306.224423174
306.249365085
306.379533315
306.563187623
306.762818683
306.98027262
307.242666174
307.541782141
307.80957156
307.925148815
307.756309805
307.321037039
306.782369346
306.263108205
305.812628197
305.439310481
305.135119434
304.893699761
304.714419694
304.596515326
304.538207094
305.744607329
305.952796556
306.306990093
306.68103612
306.968228523
307.079815463
307.009403445
306.81978953
306.546165834
306.206855251
305.883534671
305.726581177
305.774097129
305.949174296
306.177434136
306.404277843
306.640759015
306.94792018
307.330219221
307.704327853
307.904298765
307.70546578
307.131797384
306.453841664
305.835272981
305.32052417
304.905484831
304.569954126
304.302832331
304.104902197
303.975471932
303.911721904
305.188163237
305.462830558
305.936964453
306.427165087
306.80403953
306.937623057
306.827969904
306.589313433
306.258457816
305.8228579
305.378906862
305.177975698
305.267330995
305.505954519
305.792514382
306.043851797
306.284145678
306.63500864
307.12137308
307.64333779
307.983910409
307.749112938
306.969418591
306.111255549
305.382269441
304.804280511
304.352570435
303.98847384
303.695455433
303.479046011
303.338794404
303.270084209
304.563186984
304.923143962
305.563085018
306.201811913
306.700884539
306.85647373
306.679041744
306.382162713
305.997233873
305.441269227
304.813870498
304.557179442
304.723671806
305.051222478
305.416922291
305.686757682
305.900510916
306.288897144
306.904360426
307.628488052
308.208208105
307.929851649
306.82752493
305.737239132
304.89237765
304.257328625
303.778616278
303.39008624
303.069789002
302.835011109
302.685090943
302.61212894
303.848359197
304.313612226
305.189681156
306.011571895
306.683829519
306.858834123
306.560250541
306.197321513
305.779090112
305.077883634
304.156526065
303.830992283
304.14020209
304.587461006
305.065860382
305.344301789
305.473887992
305.886746332
306.660978976
307.650607301
308.647956925
308.317542304
306.683570272
305.302805126
304.350967763
303.672228133
303.183056385
302.775579018
302.423680026
302.17069709
302.013081833
301.936868929
303.017355999
303.601529497
304.830001586
305.858952774
306.791335935
306.979867498
306.457841356
306.026623509
305.632033906
304.769902843
303.350613542
302.946544029
303.522701366
304.116457018
304.765394167
305.039723343
304.977163729
305.395032355
306.364606813
307.671738812
309.420675024
309.032181352
306.477344776
304.762147409
303.742287047
303.040742493
302.568088206
302.148191791
301.75385218
301.483549036
301.321729864
301.243564881
302.040443855
302.728524261
304.520388697
305.730700382
307.085074216
307.278838344
306.333044668
305.847105696
305.602229869
304.601599813
302.291297274
301.817479019
302.901307889
303.632232697
304.559228166
304.820075092
304.361090895
304.766217552
305.984760824
307.583436215
310.728887142
310.289571512
306.062314995
304.048729321
303.055096693
302.35310897
301.941020218
301.515504684
301.054094773
300.770357802
300.61054544
300.531799841
)
;

boundaryField
{
    left
    {
        type            zeroGradient;
    }
    right
    {
        type            zeroGradient;
    }
    interface
    {
        type            fixedGradient;
        gradient        nonuniform List<scalar> 
32
(
-73.5235429517
-73.5235429517
-10.4980994387
-10.4980994387
37.3877838328
37.3877838328
-15.3234156447
-15.3234156447
10.2097387252
10.2097387252
-97.1538926047
-97.1538926047
-34.0886802987
-34.0886802987
-2.49186480837
-2.49186480837
-53.2034608159
-53.2034608159
-30.3302134744
-30.3302134744
141.163084349
141.163084349
-61.9054659124
-61.9054659124
-48.5738076953
-48.5738076953
-39.8428752617
-39.8428752617
-47.5535408632
-47.5535408632
-46.7390657244
-46.7390657244
)
;
    }
    bottom
    {
        type            fixedValue;
        value           uniform 310;
    }
    defaultFaces
    {
        type            empty;
    }
}


// ************************************************************************* //
