/*--------------------------------*- C++ -*----------------------------------*\
| =========                 |                                                 |
| \\      /  F ield         | OpenFOAM: The Open Source CFD Toolbox           |
|  \\    /   O peration     | Version:  2112                                  |
|   \\  /    A nd           | Website:  www.openfoam.com                      |
|    \\/     M anipulation  |                                                 |
\*---------------------------------------------------------------------------*/
FoamFile
{
    version     2.0;
    format      ascii;
    arch        "LSB;label=32;scalar=64";
    class       surfaceScalarField;
    location    "9";
    object      phi;
}
// * * * * * * * * * * * * * * * * * * * * * * * * * * * * * * * * * * * * * //

dimensions      [1 0 -1 0 0 0 0];

oriented        oriented;

internalField   nonuniform List<scalar> 
23692
(
2.32966e-06
-2.67735e-09
2.33452e-06
-4.85317e-09
2.34131e-06
-6.79479e-09
2.34982e-06
-8.50706e-09
2.35986e-06
-1.00424e-08
2.3713e-06
-1.14327e-08
2.384e-06
-1.26991e-08
2.39785e-06
-1.38583e-08
2.41278e-06
-1.49234e-08
2.42868e-06
-1.59051e-08
2.4455e-06
-1.68118e-08
2.46315e-06
-1.76506e-08
2.48158e-06
-1.84275e-08
2.50073e-06
-1.91475e-08
2.52054e-06
-1.98148e-08
2.54098e-06
-2.04332e-08
2.56199e-06
-2.10058e-08
2.58352e-06
-2.15354e-08
2.60555e-06
-2.20242e-08
2.62802e-06
-2.24745e-08
2.65091e-06
-2.2888e-08
2.67418e-06
-2.32662e-08
2.69779e-06
-2.36107e-08
2.72172e-06
-2.39227e-08
2.74592e-06
-2.42032e-08
2.77038e-06
-2.44531e-08
2.79505e-06
-2.46735e-08
2.81992e-06
-2.4865e-08
2.84495e-06
-2.50282e-08
2.87012e-06
-2.51639e-08
2.89539e-06
-2.52723e-08
2.92074e-06
-2.53541e-08
2.94616e-06
-2.54094e-08
2.9716e-06
-2.54387e-08
2.99704e-06
-2.54421e-08
3.02246e-06
-2.54198e-08
3.04783e-06
-2.53718e-08
3.07313e-06
-2.52981e-08
3.09833e-06
-2.51987e-08
3.12341e-06
-2.50733e-08
3.14833e-06
-2.49216e-08
3.17307e-06
-2.47434e-08
3.19761e-06
-2.4538e-08
3.22192e-06
-2.43049e-08
3.24596e-06
-2.40432e-08
3.26972e-06
-2.37519e-08
3.29315e-06
-2.34301e-08
3.31622e-06
-2.30761e-08
3.33891e-06
-2.26885e-08
3.36118e-06
-2.22652e-08
3.38298e-06
-2.18039e-08
3.40429e-06
-2.13019e-08
3.42504e-06
-2.07559e-08
3.44521e-06
-2.01621e-08
3.46472e-06
-1.95159e-08
3.48353e-06
-1.88118e-08
3.50158e-06
-1.80432e-08
3.51878e-06
-1.72023e-08
3.53506e-06
-1.62795e-08
3.55032e-06
-1.52632e-08
3.56446e-06
-1.4139e-08
3.57735e-06
-1.28892e-08
3.58884e-06
-1.14918e-08
3.59876e-06
-9.91892e-09
3.6069e-06
-8.13491e-09
3.61299e-06
-6.09386e-09
3.61672e-06
-3.73556e-09
3.6177e-06
-9.80218e-10
3.61542e-06
2.28116e-09
3.60922e-06
6.20089e-09
3.59823e-06
1.09956e-08
3.58124e-06
1.69807e-08
3.55662e-06
2.46283e-08
3.52195e-06
3.4666e-08
3.4737e-06
4.82493e-08
3.40643e-06
6.72672e-08
3.31155e-06
9.48847e-08
3.17498e-06
1.36561e-07
2.97256e-06
2.02423e-07
2.65915e-06
3.13411e-07
5.30154e-07
2.12899e-06
2.49277e-06
-5.47139e-09
2.49793e-06
-1.00171e-08
2.50518e-06
-1.40424e-08
2.51426e-06
-1.7586e-08
2.52498e-06
-2.07647e-08
2.53719e-06
-2.36427e-08
2.55076e-06
-2.62637e-08
2.56556e-06
-2.86628e-08
2.58151e-06
-3.08673e-08
2.5985e-06
-3.28988e-08
2.61647e-06
-3.47749e-08
2.63533e-06
-3.65106e-08
2.65502e-06
-3.8118e-08
2.67548e-06
-3.96075e-08
2.69666e-06
-4.09881e-08
2.71849e-06
-4.22673e-08
2.74094e-06
-4.34517e-08
2.76395e-06
-4.4547e-08
2.78749e-06
-4.5558e-08
2.81151e-06
-4.64891e-08
2.83596e-06
-4.7344e-08
2.86082e-06
-4.8126e-08
2.88605e-06
-4.88381e-08
2.91162e-06
-4.94827e-08
2.93748e-06
-5.00623e-08
2.9636e-06
-5.05787e-08
2.98997e-06
-5.10337e-08
3.01653e-06
-5.14289e-08
3.04327e-06
-5.17657e-08
3.07015e-06
-5.20453e-08
3.09715e-06
-5.22687e-08
3.12424e-06
-5.24367e-08
3.15138e-06
-5.25502e-08
3.17855e-06
-5.26097e-08
3.20573e-06
-5.26156e-08
3.23288e-06
-5.25682e-08
3.25997e-06
-5.24677e-08
3.28699e-06
-5.23141e-08
3.3139e-06
-5.21071e-08
3.34068e-06
-5.18464e-08
3.36729e-06
-5.15315e-08
3.39371e-06
-5.11616e-08
3.4199e-06
-5.07355e-08
3.44585e-06
-5.0252e-08
3.47152e-06
-4.97095e-08
3.49688e-06
-4.91061e-08
3.52189e-06
-4.84393e-08
3.54652e-06
-4.77064e-08
3.57073e-06
-4.69039e-08
3.5945e-06
-4.60279e-08
3.61777e-06
-4.50736e-08
3.6405e-06
-4.40355e-08
3.66265e-06
-4.29069e-08
3.68417e-06
-4.168e-08
3.705e-06
-4.03453e-08
3.72508e-06
-3.88919e-08
3.74434e-06
-3.73065e-08
3.76271e-06
-3.5573e-08
3.78011e-06
-3.3672e-08
3.79642e-06
-3.15803e-08
3.81155e-06
-2.9269e-08
3.82537e-06
-2.67026e-08
3.83771e-06
-2.38371e-08
3.84841e-06
-2.0617e-08
3.85725e-06
-1.6972e-08
3.86397e-06
-1.28117e-08
3.86825e-06
-8.01873e-09
3.86971e-06
-2.43835e-09
3.86785e-06
4.1368e-09
3.86206e-06
1.19922e-08
3.85153e-06
2.15271e-08
3.8352e-06
3.33091e-08
3.81166e-06
4.8163e-08
3.77902e-06
6.73118e-08
3.73466e-06
9.26041e-08
3.67506e-06
1.26871e-07
3.59549e-06
1.74454e-07
3.49013e-06
2.41913e-07
3.35355e-06
3.39003e-07
3.18906e-06
4.77906e-07
6.54896e-07
3.06432e-06
2.66727e-06
-8.3656e-09
2.67274e-06
-1.54854e-08
2.68044e-06
-2.17378e-08
2.6901e-06
-2.72454e-08
2.70152e-06
-3.21838e-08
2.71453e-06
-3.66539e-08
2.72899e-06
-4.07242e-08
2.74478e-06
-4.44494e-08
2.76178e-06
-4.78718e-08
2.77991e-06
-5.10254e-08
2.79907e-06
-5.39376e-08
2.8192e-06
-5.66313e-08
2.8402e-06
-5.91258e-08
2.86204e-06
-6.14371e-08
2.88463e-06
-6.35791e-08
2.90793e-06
-6.55635e-08
2.93188e-06
-6.74007e-08
2.95643e-06
-6.90993e-08
2.98154e-06
-7.0667e-08
3.00716e-06
-7.21105e-08
3.03326e-06
-7.34356e-08
3.05978e-06
-7.46475e-08
3.0867e-06
-7.57506e-08
3.11396e-06
-7.67491e-08
3.14155e-06
-7.76463e-08
3.16942e-06
-7.84454e-08
3.19754e-06
-7.91492e-08
3.22587e-06
-7.97601e-08
3.25439e-06
-8.02802e-08
3.28305e-06
-8.07113e-08
3.31184e-06
-8.10552e-08
3.34072e-06
-8.13131e-08
3.36966e-06
-8.14863e-08
3.39863e-06
-8.15755e-08
3.42759e-06
-8.15815e-08
3.45653e-06
-8.15049e-08
3.48541e-06
-8.13457e-08
3.5142e-06
-8.11041e-08
3.54288e-06
-8.07797e-08
3.5714e-06
-8.0372e-08
3.59975e-06
-7.98801e-08
3.6279e-06
-7.93028e-08
3.6558e-06
-7.86386e-08
3.68343e-06
-7.78854e-08
3.71077e-06
-7.70409e-08
3.73776e-06
-7.61019e-08
3.76439e-06
-7.50651e-08
3.79061e-06
-7.39258e-08
3.81639e-06
-7.26792e-08
3.84168e-06
-7.13191e-08
3.86644e-06
-6.98383e-08
3.89064e-06
-6.82284e-08
3.91421e-06
-6.64792e-08
3.93711e-06
-6.4579e-08
3.95928e-06
-6.25137e-08
3.98065e-06
-6.02664e-08
4.00116e-06
-5.78173e-08
4.02073e-06
-5.51424e-08
4.03928e-06
-5.22129e-08
4.05669e-06
-4.89938e-08
4.07286e-06
-4.54426e-08
4.08767e-06
-4.1507e-08
4.10095e-06
-3.71225e-08
4.11254e-06
-3.22084e-08
4.12223e-06
-2.66633e-08
4.12978e-06
-2.0358e-08
4.13489e-06
-1.31266e-08
4.1372e-06
-4.75363e-09
4.1363e-06
5.04369e-09
4.13164e-06
1.66441e-08
4.12261e-06
3.05638e-08
4.1084e-06
4.75119e-08
4.08809e-06
6.84736e-08
4.06057e-06
9.48305e-08
4.02465e-06
1.28527e-07
3.97924e-06
1.72281e-07
3.92392e-06
2.29778e-07
3.86017e-06
3.05658e-07
3.79445e-06
4.04726e-07
3.74456e-06
5.27795e-07
6.56789e-07
3.74266e-06
2.85398e-06
-1.13528e-08
2.85974e-06
-2.12444e-08
2.86788e-06
-2.98766e-08
2.87812e-06
-3.74892e-08
2.89025e-06
-4.43122e-08
2.90409e-06
-5.0486e-08
2.91947e-06
-5.61065e-08
2.93627e-06
-6.12494e-08
2.95437e-06
-6.59736e-08
2.97367e-06
-7.03259e-08
2.99408e-06
-7.43444e-08
3.01551e-06
-7.8061e-08
3.03789e-06
-8.1502e-08
3.06115e-06
-8.46899e-08
3.08521e-06
-8.76437e-08
3.11003e-06
-9.03799e-08
3.13554e-06
-9.29124e-08
3.1617e-06
-9.52534e-08
3.18845e-06
-9.74135e-08
3.21574e-06
-9.94019e-08
3.24354e-06
-1.01227e-07
3.27179e-06
-1.02895e-07
3.30045e-06
-1.04413e-07
3.32949e-06
-1.05787e-07
3.35887e-06
-1.0702e-07
3.38854e-06
-1.08118e-07
3.41848e-06
-1.09084e-07
3.44864e-06
-1.09922e-07
3.479e-06
-1.10635e-07
3.50951e-06
-1.11224e-07
3.54015e-06
-1.11693e-07
3.57088e-06
-1.12043e-07
3.60168e-06
-1.12276e-07
3.6325e-06
-1.12394e-07
3.66331e-06
-1.12396e-07
3.69409e-06
-1.12284e-07
3.72481e-06
-1.12058e-07
3.75542e-06
-1.11719e-07
3.78591e-06
-1.11265e-07
3.81624e-06
-1.10697e-07
3.84637e-06
-1.10012e-07
3.87628e-06
-1.0921e-07
3.90593e-06
-1.08288e-07
3.93529e-06
-1.07243e-07
3.96432e-06
-1.06073e-07
3.993e-06
-1.04774e-07
4.02127e-06
-1.03339e-07
4.04911e-06
-1.01765e-07
4.07648e-06
-1.00043e-07
4.10332e-06
-9.81661e-08
4.12961e-06
-9.61242e-08
4.15529e-06
-9.39062e-08
4.18031e-06
-9.14985e-08
4.20462e-06
-8.88856e-08
4.22815e-06
-8.60488e-08
4.25085e-06
-8.29659e-08
4.27264e-06
-7.96107e-08
4.29345e-06
-7.59519e-08
4.31319e-06
-7.19518e-08
4.33177e-06
-6.75653e-08
4.34906e-06
-6.27375e-08
4.36495e-06
-5.74017e-08
4.37931e-06
-5.14759e-08
4.39196e-06
-4.48592e-08
4.40272e-06
-3.74255e-08
4.41138e-06
-2.90171e-08
4.41769e-06
-1.94344e-08
4.42136e-06
-8.42328e-09
4.42206e-06
4.34068e-09
4.41943e-06
1.92767e-08
4.41305e-06
3.69345e-08
4.40253e-06
5.80376e-08
4.38747e-06
8.35353e-08
4.36763e-06
1.14668e-07
4.34313e-06
1.5303e-07
4.3148e-06
2.00606e-07
4.2849e-06
2.5968e-07
4.25813e-06
3.3242e-07
4.24319e-06
4.19667e-07
4.25318e-06
5.17806e-07
6.12095e-07
4.29787e-06
3.05376e-06
-1.44297e-08
3.0598e-06
-2.72826e-08
3.06837e-06
-3.84528e-08
3.0792e-06
-4.83179e-08
3.09205e-06
-5.71579e-08
3.10672e-06
-6.5154e-08
3.12304e-06
-7.24319e-08
3.14089e-06
-7.90899e-08
3.16012e-06
-8.52045e-08
3.18063e-06
-9.08366e-08
3.20232e-06
-9.60358e-08
3.22511e-06
-1.00843e-07
3.2489e-06
-1.05293e-07
3.27363e-06
-1.09415e-07
3.29922e-06
-1.13234e-07
3.32561e-06
-1.1677e-07
3.35274e-06
-1.20042e-07
3.38056e-06
-1.23066e-07
3.409e-06
-1.25856e-07
3.43802e-06
-1.28422e-07
3.46758e-06
-1.30777e-07
3.49761e-06
-1.32929e-07
3.52809e-06
-1.34886e-07
3.55896e-06
-1.36656e-07
3.59019e-06
-1.38244e-07
3.62173e-06
-1.39657e-07
3.65354e-06
-1.40898e-07
3.6856e-06
-1.41974e-07
3.71785e-06
-1.42887e-07
3.75027e-06
-1.4364e-07
3.78282e-06
-1.44238e-07
3.81546e-06
-1.44681e-07
3.84815e-06
-1.44973e-07
3.88088e-06
-1.45115e-07
3.91359e-06
-1.45108e-07
3.94626e-06
-1.44954e-07
3.97886e-06
-1.44652e-07
4.01135e-06
-1.44203e-07
4.04369e-06
-1.43606e-07
4.07585e-06
-1.42861e-07
4.10781e-06
-1.41966e-07
4.13952e-06
-1.40919e-07
4.17095e-06
-1.39718e-07
4.20207e-06
-1.38359e-07
4.23283e-06
-1.36838e-07
4.26321e-06
-1.3515e-07
4.29316e-06
-1.3329e-07
4.32265e-06
-1.3125e-07
4.35163e-06
-1.29021e-07
4.38005e-06
-1.26594e-07
4.40789e-06
-1.23956e-07
4.43508e-06
-1.21094e-07
4.46157e-06
-1.17991e-07
4.48731e-06
-1.14629e-07
4.51225e-06
-1.10983e-07
4.53631e-06
-1.07028e-07
4.55943e-06
-1.02732e-07
4.58154e-06
-9.80559e-08
4.60254e-06
-9.29564e-08
4.62235e-06
-8.73792e-08
4.64088e-06
-8.12599e-08
4.658e-06
-7.4521e-08
4.67359e-06
-6.70683e-08
4.68752e-06
-5.8787e-08
4.69963e-06
-4.95366e-08
4.70975e-06
-3.91444e-08
4.71772e-06
-2.73963e-08
4.72332e-06
-1.40271e-08
4.72637e-06
1.29092e-09
4.72668e-06
1.89649e-08
4.72412e-06
3.94956e-08
4.71864e-06
6.35148e-08
4.71038e-06
9.1793e-08
4.6998e-06
1.25251e-07
4.68788e-06
1.64946e-07
4.67649e-06
2.11996e-07
4.66879e-06
2.67383e-07
4.6697e-06
3.31507e-07
4.68606e-06
4.03302e-07
4.72526e-06
4.7861e-07
5.47825e-07
4.78953e-06
3.26752e-06
-1.75966e-08
3.27383e-06
-3.35915e-08
3.28284e-06
-4.74604e-08
3.29425e-06
-5.97295e-08
3.30782e-06
-7.07251e-08
3.32333e-06
-8.06686e-08
3.34062e-06
-8.97171e-08
3.35952e-06
-9.7993e-08
3.37991e-06
-1.05592e-07
3.40166e-06
-1.12589e-07
3.42468e-06
-1.19047e-07
3.44885e-06
-1.25017e-07
3.4741e-06
-1.30542e-07
3.50035e-06
-1.35658e-07
3.52751e-06
-1.40396e-07
3.55553e-06
-1.44783e-07
3.58433e-06
-1.48841e-07
3.61385e-06
-1.52589e-07
3.64404e-06
-1.56046e-07
3.67485e-06
-1.59225e-07
3.70621e-06
-1.62141e-07
3.73809e-06
-1.64804e-07
3.77043e-06
-1.67224e-07
3.80319e-06
-1.69411e-07
3.83632e-06
-1.71372e-07
3.86978e-06
-1.73114e-07
3.90353e-06
-1.74644e-07
3.93752e-06
-1.75967e-07
3.97173e-06
-1.77088e-07
4.0061e-06
-1.7801e-07
4.0406e-06
-1.78738e-07
4.0752e-06
-1.79275e-07
4.10985e-06
-1.79623e-07
4.14452e-06
-1.79785e-07
4.17918e-06
-1.79762e-07
4.21378e-06
-1.79555e-07
4.24829e-06
-1.79165e-07
4.28269e-06
-1.78593e-07
4.31692e-06
-1.77837e-07
4.35096e-06
-1.76898e-07
4.38477e-06
-1.75773e-07
4.41831e-06
-1.7446e-07
4.45155e-06
-1.72956e-07
4.48445e-06
-1.71257e-07
4.51697e-06
-1.69359e-07
4.54908e-06
-1.67255e-07
4.58073e-06
-1.64939e-07
4.61188e-06
-1.62402e-07
4.6425e-06
-1.59634e-07
4.67253e-06
-1.56624e-07
4.70193e-06
-1.53357e-07
4.73065e-06
-1.49817e-07
4.75865e-06
-1.45986e-07
4.78586e-06
-1.41841e-07
4.81224e-06
-1.37356e-07
4.83771e-06
-1.325e-07
4.86221e-06
-1.27237e-07
4.88568e-06
-1.21525e-07
4.90804e-06
-1.15314e-07
4.92921e-06
-1.08544e-07
4.94909e-06
-1.01146e-07
4.96761e-06
-9.30348e-08
4.98465e-06
-8.41112e-08
5.00012e-06
-7.42556e-08
5.01391e-06
-6.33243e-08
5.02591e-06
-5.11452e-08
5.03602e-06
-3.75108e-08
5.04417e-06
-2.21725e-08
5.05029e-06
-4.83372e-09
5.0544e-06
1.4854e-08
5.05661e-06
3.72891e-08
5.05718e-06
6.29425e-08
5.05663e-06
9.23403e-08
5.05584e-06
1.26039e-07
5.05621e-06
1.64574e-07
5.05985e-06
2.08354e-07
5.06975e-06
2.57483e-07
5.08981e-06
3.11447e-07
5.12448e-06
3.68637e-07
5.17739e-06
4.25697e-07
4.76943e-07
5.24827e-06
3.49625e-06
-2.0856e-08
3.50282e-06
-4.01648e-08
3.51225e-06
-5.68944e-08
3.52425e-06
-7.17208e-08
3.53854e-06
-8.5015e-08
3.55491e-06
-9.70362e-08
3.57316e-06
-1.07974e-07
3.59315e-06
-1.17975e-07
3.61471e-06
-1.27156e-07
3.63773e-06
-1.35609e-07
3.6621e-06
-1.43407e-07
3.6877e-06
-1.50615e-07
3.71444e-06
-1.57283e-07
3.74224e-06
-1.63456e-07
3.77102e-06
-1.69171e-07
3.8007e-06
-1.7446e-07
3.83121e-06
-1.79351e-07
3.86249e-06
-1.83868e-07
3.89448e-06
-1.8803e-07
3.92711e-06
-1.91857e-07
3.96034e-06
-1.95365e-07
3.9941e-06
-1.98566e-07
4.02835e-06
-2.01474e-07
4.06304e-06
-2.04099e-07
4.09813e-06
-2.06451e-07
4.13355e-06
-2.08538e-07
4.16928e-06
-2.10367e-07
4.20526e-06
-2.11947e-07
4.24146e-06
-2.13281e-07
4.27782e-06
-2.14376e-07
4.31432e-06
-2.15235e-07
4.35091e-06
-2.15864e-07
4.38756e-06
-2.16264e-07
4.42421e-06
-2.16439e-07
4.46084e-06
-2.1639e-07
4.49741e-06
-2.16121e-07
4.53388e-06
-2.1563e-07
4.57021e-06
-2.14919e-07
4.60636e-06
-2.13987e-07
4.6423e-06
-2.12834e-07
4.67798e-06
-2.11457e-07
4.71338e-06
-2.09855e-07
4.74845e-06
-2.08024e-07
4.78315e-06
-2.05959e-07
4.81745e-06
-2.03656e-07
4.8513e-06
-2.01107e-07
4.88467e-06
-1.98305e-07
4.91751e-06
-1.95241e-07
4.94978e-06
-1.91903e-07
4.98144e-06
-1.88278e-07
5.01243e-06
-1.84351e-07
5.04272e-06
-1.80104e-07
5.07225e-06
-1.75515e-07
5.10097e-06
-1.70562e-07
5.12883e-06
-1.65214e-07
5.15577e-06
-1.59439e-07
5.18173e-06
-1.53199e-07
5.20665e-06
-1.46448e-07
5.23047e-06
-1.39134e-07
5.25312e-06
-1.31195e-07
5.27454e-06
-1.2256e-07
5.29465e-06
-1.13144e-07
5.31339e-06
-1.0285e-07
5.33069e-06
-9.15613e-08
5.34651e-06
-7.91449e-08
5.36081e-06
-6.54435e-08
5.37357e-06
-5.02755e-08
5.38483e-06
-3.34317e-08
5.39467e-06
-1.46743e-08
5.40326e-06
6.26198e-09
5.4109e-06
2.965e-08
5.41807e-06
5.57748e-08
5.42549e-06
8.49212e-08
5.4342e-06
1.17328e-07
5.44564e-06
1.53134e-07
5.4617e-06
1.9229e-07
5.48474e-06
2.3444e-07
5.51743e-06
2.78759e-07
5.56232e-06
3.23752e-07
5.62094e-06
3.67073e-07
4.05531e-07
5.69235e-06
3.74099e-06
-2.42124e-08
3.74782e-06
-4.69987e-08
3.75768e-06
-6.67508e-08
3.77025e-06
-8.42884e-08
3.78526e-06
-1.00027e-07
3.80249e-06
-1.1426e-07
3.82172e-06
-1.27209e-07
3.8428e-06
-1.39049e-07
3.86556e-06
-1.49914e-07
3.88987e-06
-1.59915e-07
3.9156e-06
-1.6914e-07
3.94265e-06
-1.77663e-07
3.97092e-06
-1.85546e-07
4.0003e-06
-1.92841e-07
4.03073e-06
-1.99592e-07
4.06211e-06
-2.05838e-07
4.09437e-06
-2.1161e-07
4.12744e-06
-2.16939e-07
4.16126e-06
-2.21847e-07
4.19576e-06
-2.26357e-07
4.23089e-06
-2.30488e-07
4.26658e-06
-2.34256e-07
4.30279e-06
-2.37675e-07
4.33945e-06
-2.40759e-07
4.37652e-06
-2.43519e-07
4.41395e-06
-2.45964e-07
4.45169e-06
-2.48105e-07
4.48969e-06
-2.49948e-07
4.52792e-06
-2.51501e-07
4.56631e-06
-2.5277e-07
4.60484e-06
-2.53761e-07
4.64346e-06
-2.54478e-07
4.68212e-06
-2.54924e-07
4.72079e-06
-2.55104e-07
4.75942e-06
-2.5502e-07
4.79798e-06
-2.54674e-07
4.83642e-06
-2.54068e-07
4.8747e-06
-2.53201e-07
4.91279e-06
-2.52074e-07
4.95065e-06
-2.50686e-07
4.98823e-06
-2.49036e-07
5.02549e-06
-2.4712e-07
5.06241e-06
-2.44936e-07
5.09893e-06
-2.42478e-07
5.13502e-06
-2.39742e-07
5.17063e-06
-2.3672e-07
5.20573e-06
-2.33403e-07
5.24027e-06
-2.29782e-07
5.27421e-06
-2.25845e-07
5.30751e-06
-2.21577e-07
5.34013e-06
-2.16963e-07
5.37201e-06
-2.11983e-07
5.40311e-06
-2.06616e-07
5.43338e-06
-2.00836e-07
5.46278e-06
-1.94614e-07
5.49126e-06
-1.87916e-07
5.51877e-06
-1.80702e-07
5.54525e-06
-1.72928e-07
5.57066e-06
-1.64543e-07
5.59495e-06
-1.55485e-07
5.61807e-06
-1.45687e-07
5.64e-06
-1.35071e-07
5.6607e-06
-1.23547e-07
5.68015e-06
-1.11014e-07
5.69836e-06
-9.73559e-08
5.71536e-06
-8.24451e-08
5.73123e-06
-6.61389e-08
5.74608e-06
-4.82828e-08
5.76011e-06
-2.87118e-08
5.77363e-06
-7.25507e-09
5.78703e-06
1.62466e-08
5.8009e-06
4.19071e-08
5.81601e-06
6.98116e-08
5.83337e-06
9.99705e-08
5.85422e-06
1.32275e-07
5.88007e-06
1.66445e-07
5.91254e-06
2.01963e-07
5.95329e-06
2.38016e-07
6.0036e-06
2.73435e-07
6.06397e-06
3.06704e-07
3.36069e-07
6.13343e-06
4.00287e-06
-2.76709e-08
4.00996e-06
-5.4091e-08
4.02024e-06
-7.70269e-08
4.03338e-06
-9.74288e-08
4.04911e-06
-1.15758e-07
4.0672e-06
-1.3234e-07
4.08741e-06
-1.47427e-07
4.10959e-06
-1.6122e-07
4.13355e-06
-1.73876e-07
4.15916e-06
-1.85522e-07
4.18628e-06
-1.96261e-07
4.2148e-06
-2.06181e-07
4.24461e-06
-2.15352e-07
4.27561e-06
-2.23835e-07
4.3077e-06
-2.31684e-07
4.34081e-06
-2.38941e-07
4.37485e-06
-2.45646e-07
4.40974e-06
-2.51832e-07
4.44542e-06
-2.57527e-07
4.48182e-06
-2.62756e-07
4.51888e-06
-2.67542e-07
4.55653e-06
-2.71903e-07
4.59472e-06
-2.75858e-07
4.63338e-06
-2.7942e-07
4.67247e-06
-2.82605e-07
4.71193e-06
-2.85422e-07
4.75171e-06
-2.87883e-07
4.79176e-06
-2.89997e-07
4.83204e-06
-2.91773e-07
4.87249e-06
-2.93218e-07
4.91307e-06
-2.94337e-07
4.95373e-06
-2.95138e-07
4.99443e-06
-2.95624e-07
5.03513e-06
-2.95799e-07
5.07578e-06
-2.95667e-07
5.11634e-06
-2.95231e-07
5.15677e-06
-2.94492e-07
5.19702e-06
-2.93451e-07
5.23705e-06
-2.92108e-07
5.27683e-06
-2.90464e-07
5.31632e-06
-2.88516e-07
5.35546e-06
-2.86262e-07
5.39422e-06
-2.83699e-07
5.43257e-06
-2.80821e-07
5.47045e-06
-2.77625e-07
5.50784e-06
-2.74101e-07
5.54468e-06
-2.70242e-07
5.58093e-06
-2.66037e-07
5.61656e-06
-2.61475e-07
5.65153e-06
-2.56541e-07
5.68579e-06
-2.51219e-07
5.71929e-06
-2.45489e-07
5.75201e-06
-2.39331e-07
5.78389e-06
-2.32718e-07
5.8149e-06
-2.25622e-07
5.84499e-06
-2.1801e-07
5.87414e-06
-2.09846e-07
5.9023e-06
-2.01086e-07
5.92944e-06
-1.91684e-07
5.95554e-06
-1.81584e-07
5.98058e-06
-1.70728e-07
6.00456e-06
-1.59048e-07
6.02748e-06
-1.46469e-07
6.04938e-06
-1.32911e-07
6.0703e-06
-1.18285e-07
6.09036e-06
-1.025e-07
6.10968e-06
-8.54577e-08
6.12846e-06
-6.70643e-08
6.14697e-06
-4.72289e-08
6.16559e-06
-2.58728e-08
6.18477e-06
-2.93338e-09
6.20508e-06
2.15979e-08
6.22724e-06
4.76523e-08
6.25211e-06
7.51029e-08
6.28066e-06
1.0372e-07
6.31396e-06
1.33148e-07
6.35304e-06
1.62878e-07
6.39882e-06
1.92238e-07
6.45186e-06
2.20396e-07
6.51215e-06
2.46409e-07
2.69324e-07
6.57889e-06
4.28309e-06
-3.12369e-08
4.29044e-06
-6.1441e-08
4.30113e-06
-8.77204e-08
4.31485e-06
-1.11139e-07
4.33129e-06
-1.32205e-07
4.35023e-06
-1.51274e-07
4.37143e-06
-1.68626e-07
4.3947e-06
-1.8449e-07
4.41987e-06
-1.99045e-07
4.44679e-06
-2.12435e-07
4.47531e-06
-2.2478e-07
4.50531e-06
-2.36179e-07
4.53667e-06
-2.46714e-07
4.5693e-06
-2.56455e-07
4.60308e-06
-2.65463e-07
4.63793e-06
-2.73789e-07
4.67376e-06
-2.81477e-07
4.7105e-06
-2.88565e-07
4.74806e-06
-2.95087e-07
4.78638e-06
-3.01072e-07
4.82539e-06
-3.06544e-07
4.86501e-06
-3.11527e-07
4.9052e-06
-3.1604e-07
4.94588e-06
-3.20101e-07
4.98701e-06
-3.23726e-07
5.02852e-06
-3.26927e-07
5.07035e-06
-3.29718e-07
5.11247e-06
-3.32109e-07
5.15481e-06
-3.3411e-07
5.19732e-06
-3.35729e-07
5.23996e-06
-3.36974e-07
5.28268e-06
-3.37852e-07
5.32543e-06
-3.38369e-07
5.36816e-06
-3.38528e-07
5.41083e-06
-3.38335e-07
5.4534e-06
-3.37793e-07
5.49581e-06
-3.36903e-07
5.53803e-06
-3.35669e-07
5.58001e-06
-3.34089e-07
5.62172e-06
-3.32166e-07
5.6631e-06
-3.29896e-07
5.70412e-06
-3.27279e-07
5.74473e-06
-3.24311e-07
5.7849e-06
-3.20988e-07
5.82458e-06
-3.17305e-07
5.86374e-06
-3.13254e-07
5.90233e-06
-3.08828e-07
5.94031e-06
-3.04017e-07
5.97765e-06
-2.98809e-07
6.0143e-06
-2.93191e-07
6.05023e-06
-2.87147e-07
6.0854e-06
-2.80658e-07
6.11977e-06
-2.73705e-07
6.15332e-06
-2.66265e-07
6.18601e-06
-2.5831e-07
6.21781e-06
-2.49812e-07
6.2487e-06
-2.40737e-07
6.27867e-06
-2.31049e-07
6.30769e-06
-2.20708e-07
6.33577e-06
-2.09668e-07
6.36293e-06
-1.97881e-07
6.38918e-06
-1.85297e-07
6.41457e-06
-1.7186e-07
6.43917e-06
-1.57514e-07
6.46309e-06
-1.42203e-07
6.48646e-06
-1.2587e-07
6.50947e-06
-1.08467e-07
6.53236e-06
-8.99541e-08
6.55543e-06
-7.03047e-08
6.57907e-06
-4.95149e-08
6.60375e-06
-2.76075e-08
6.62998e-06
-4.63228e-09
6.65835e-06
1.92833e-08
6.68951e-06
4.39373e-08
6.72418e-06
6.90554e-08
6.76303e-06
9.42974e-08
6.80667e-06
1.19234e-07
6.85555e-06
1.43361e-07
6.90982e-06
1.6612e-07
6.96929e-06
1.86937e-07
2.05298e-07
7.03332e-06
4.58293e-06
-3.4915e-08
4.59054e-06
-6.9048e-08
4.60165e-06
-9.88289e-08
4.61592e-06
-1.25414e-07
4.63308e-06
-1.49363e-07
4.65286e-06
-1.71056e-07
4.67504e-06
-1.90803e-07
4.69941e-06
-2.08856e-07
4.72579e-06
-2.2542e-07
4.75401e-06
-2.40655e-07
4.78393e-06
-2.54698e-07
4.81541e-06
-2.6766e-07
4.84834e-06
-2.79636e-07
4.88259e-06
-2.90705e-07
4.91806e-06
-3.00936e-07
4.95467e-06
-3.10388e-07
4.9923e-06
-3.1911e-07
5.03089e-06
-3.27147e-07
5.07034e-06
-3.34537e-07
5.11058e-06
-3.41312e-07
5.15155e-06
-3.47503e-07
5.19316e-06
-3.53134e-07
5.23535e-06
-3.58229e-07
5.27806e-06
-3.62807e-07
5.32122e-06
-3.66887e-07
5.36478e-06
-3.70483e-07
5.40868e-06
-3.73611e-07
5.45286e-06
-3.76283e-07
5.49726e-06
-3.7851e-07
5.54184e-06
-3.80303e-07
5.58653e-06
-3.81669e-07
5.6313e-06
-3.82617e-07
5.67609e-06
-3.83154e-07
5.72085e-06
-3.83285e-07
5.76553e-06
-3.83016e-07
5.81009e-06
-3.82351e-07
5.85449e-06
-3.81292e-07
5.89866e-06
-3.79844e-07
5.94258e-06
-3.78006e-07
5.9862e-06
-3.7578e-07
6.02947e-06
-3.73165e-07
6.07235e-06
-3.7016e-07
6.11481e-06
-3.66763e-07
6.15679e-06
-3.6297e-07
6.19827e-06
-3.58777e-07
6.23919e-06
-3.54177e-07
6.27953e-06
-3.49164e-07
6.31924e-06
-3.43728e-07
6.35829e-06
-3.3786e-07
6.39665e-06
-3.31547e-07
6.43428e-06
-3.24775e-07
6.47115e-06
-3.17529e-07
6.50724e-06
-3.09791e-07
6.54251e-06
-3.01541e-07
6.57696e-06
-2.92757e-07
6.61056e-06
-2.83414e-07
6.64332e-06
-2.73487e-07
6.67521e-06
-2.62947e-07
6.70627e-06
-2.51762e-07
6.7365e-06
-2.39901e-07
6.76595e-06
-2.27329e-07
6.79467e-06
-2.14015e-07
6.82273e-06
-1.99924e-07
6.85024e-06
-1.85026e-07
6.87734e-06
-1.69296e-07
6.90418e-06
-1.52713e-07
6.93098e-06
-1.35269e-07
6.95799e-06
-1.16969e-07
6.98553e-06
-9.7836e-08
7.01393e-06
-7.79178e-08
7.04361e-06
-5.72896e-08
7.07503e-06
-3.60572e-08
7.10867e-06
-1.43517e-08
7.14497e-06
7.63185e-09
7.18439e-06
2.9639e-08
7.22732e-06
5.1367e-08
7.27408e-06
7.24736e-08
7.32483e-06
9.26085e-08
7.37954e-06
1.11407e-07
7.43795e-06
1.28527e-07
1.43694e-07
7.49955e-06
4.90376e-06
-3.87092e-08
4.91163e-06
-7.69115e-08
4.92315e-06
-1.10348e-07
4.93798e-06
-1.40248e-07
4.95584e-06
-1.67223e-07
4.97647e-06
-1.91677e-07
4.99961e-06
-2.13946e-07
5.02507e-06
-2.34309e-07
5.05264e-06
-2.52991e-07
5.08216e-06
-2.70173e-07
5.11347e-06
-2.86006e-07
5.14643e-06
-3.00617e-07
5.18091e-06
-3.14111e-07
5.21678e-06
-3.26578e-07
5.25395e-06
-3.38096e-07
5.29229e-06
-3.48731e-07
5.33173e-06
-3.5854e-07
5.37215e-06
-3.67571e-07
5.41349e-06
-3.75869e-07
5.45565e-06
-3.83472e-07
5.49856e-06
-3.90411e-07
5.54215e-06
-3.96717e-07
5.58634e-06
-4.02415e-07
5.63106e-06
-4.07528e-07
5.67626e-06
-4.12076e-07
5.72186e-06
-4.16078e-07
5.7678e-06
-4.1955e-07
5.81402e-06
-4.22506e-07
5.86048e-06
-4.24959e-07
5.9071e-06
-4.26921e-07
5.95384e-06
-4.28402e-07
6.00063e-06
-4.29411e-07
6.04744e-06
-4.29957e-07
6.09421e-06
-4.30047e-07
6.14088e-06
-4.29686e-07
6.18741e-06
-4.2888e-07
6.23376e-06
-4.27634e-07
6.27987e-06
-4.2595e-07
6.3257e-06
-4.23833e-07
6.3712e-06
-4.21282e-07
6.41634e-06
-4.18299e-07
6.46106e-06
-4.14884e-07
6.50534e-06
-4.11035e-07
6.54912e-06
-4.06751e-07
6.59238e-06
-4.02028e-07
6.63506e-06
-3.96861e-07
6.67714e-06
-3.91244e-07
6.71859e-06
-3.85172e-07
6.75937e-06
-3.78635e-07
6.79945e-06
-3.71625e-07
6.8388e-06
-3.6413e-07
6.87741e-06
-3.56138e-07
6.91526e-06
-3.47636e-07
6.95233e-06
-3.38608e-07
6.98861e-06
-3.29038e-07
7.0241e-06
-3.18908e-07
7.05882e-06
-3.08202e-07
7.09277e-06
-2.96898e-07
7.12599e-06
-2.84979e-07
7.15852e-06
-2.72427e-07
7.19041e-06
-2.59223e-07
7.22175e-06
-2.45352e-07
7.25263e-06
-2.30804e-07
7.28317e-06
-2.15572e-07
7.31353e-06
-1.99657e-07
7.34389e-06
-1.83069e-07
7.37445e-06
-1.65831e-07
7.40546e-06
-1.47981e-07
7.4372e-06
-1.29573e-07
7.46997e-06
-1.10684e-07
7.50409e-06
-9.1415e-08
7.53992e-06
-7.18902e-08
7.57783e-06
-5.22585e-08
7.61815e-06
-3.26877e-08
7.66115e-06
-1.33649e-08
7.70704e-06
5.48149e-09
7.75591e-06
2.36016e-08
7.80777e-06
4.07481e-08
7.86249e-06
5.6683e-08
7.91982e-06
7.11948e-08
8.4148e-08
7.97937e-06
5.24706e-06
-4.26217e-08
5.25517e-06
-8.50294e-08
5.2671e-06
-1.22273e-07
5.28248e-06
-1.55633e-07
5.30104e-06
-1.85774e-07
5.32248e-06
-2.13124e-07
5.34658e-06
-2.38042e-07
5.37311e-06
-2.60832e-07
5.40186e-06
-2.81742e-07
5.43266e-06
-3.00971e-07
5.46534e-06
-3.18688e-07
5.49976e-06
-3.35032e-07
5.53577e-06
-3.50121e-07
5.57326e-06
-3.64057e-07
5.61209e-06
-3.76925e-07
5.65216e-06
-3.888e-07
5.69337e-06
-3.99745e-07
5.73562e-06
-4.09817e-07
5.77882e-06
-4.19063e-07
5.82287e-06
-4.27527e-07
5.86771e-06
-4.35245e-07
5.91325e-06
-4.4225e-07
5.95941e-06
-4.48572e-07
6.00612e-06
-4.54236e-07
6.05332e-06
-4.59266e-07
6.10092e-06
-4.63682e-07
6.14888e-06
-4.67502e-07
6.19712e-06
-4.70744e-07
6.24559e-06
-4.73422e-07
6.29422e-06
-4.75549e-07
6.34296e-06
-4.77137e-07
6.39175e-06
-4.78198e-07
6.44054e-06
-4.78741e-07
6.48927e-06
-4.78774e-07
6.53789e-06
-4.78305e-07
6.58636e-06
-4.77341e-07
6.63461e-06
-4.75888e-07
6.68262e-06
-4.73949e-07
6.73032e-06
-4.71531e-07
6.77767e-06
-4.68634e-07
6.82464e-06
-4.65262e-07
6.87117e-06
-4.61416e-07
6.91724e-06
-4.57096e-07
6.96279e-06
-4.52303e-07
7.0078e-06
-4.47033e-07
7.05223e-06
-4.41286e-07
7.09604e-06
-4.35058e-07
7.13922e-06
-4.28344e-07
7.18172e-06
-4.2114e-07
7.22354e-06
-4.13439e-07
7.26464e-06
-4.05235e-07
7.30503e-06
-3.96519e-07
7.34468e-06
-3.87285e-07
7.38359e-06
-3.77521e-07
7.42178e-06
-3.6722e-07
7.45924e-06
-3.56373e-07
7.49601e-06
-3.4497e-07
7.53211e-06
-3.33002e-07
7.5676e-06
-3.20465e-07
7.60253e-06
-3.07353e-07
7.63697e-06
-2.93663e-07
7.67102e-06
-2.794e-07
7.70478e-06
-2.6457e-07
7.7384e-06
-2.49188e-07
7.77202e-06
-2.33277e-07
7.80582e-06
-2.16867e-07
7.83999e-06
-2.00004e-07
7.87475e-06
-1.82744e-07
7.91034e-06
-1.6516e-07
7.947e-06
-1.47339e-07
7.98497e-06
-1.29386e-07
8.0245e-06
-1.11422e-07
8.06582e-06
-9.35848e-08
8.10916e-06
-7.60228e-08
8.15469e-06
-5.88945e-08
8.20252e-06
-4.23577e-08
8.25269e-06
-2.65611e-08
8.3051e-06
-1.16643e-08
8.35959e-06
2.18993e-09
8.41591e-06
1.48745e-08
2.63175e-08
8.47374e-06
5.61438e-06
-4.66529e-08
5.62275e-06
-9.33977e-08
5.63507e-06
-1.34592e-07
5.65099e-06
-1.71555e-07
5.67022e-06
-2.04998e-07
5.69247e-06
-2.35375e-07
5.7175e-06
-2.63066e-07
5.74507e-06
-2.88399e-07
5.77497e-06
-3.11644e-07
5.80702e-06
-3.3302e-07
5.84105e-06
-3.52712e-07
5.87689e-06
-3.70872e-07
5.91441e-06
-3.87633e-07
5.95346e-06
-4.03106e-07
5.99393e-06
-4.17387e-07
6.03569e-06
-4.30557e-07
6.07863e-06
-4.42689e-07
6.12267e-06
-4.53845e-07
6.16768e-06
-4.64078e-07
6.2136e-06
-4.73436e-07
6.26032e-06
-4.8196e-07
6.30776e-06
-4.89689e-07
6.35585e-06
-4.96654e-07
6.4045e-06
-5.02884e-07
6.45365e-06
-5.08406e-07
6.50321e-06
-5.13243e-07
6.55313e-06
-5.17416e-07
6.60333e-06
-5.20944e-07
6.65376e-06
-5.23843e-07
6.70434e-06
-5.2613e-07
6.75503e-06
-5.27817e-07
6.80575e-06
-5.28919e-07
6.85646e-06
-5.29445e-07
6.9071e-06
-5.29407e-07
6.95761e-06
-5.28814e-07
7.00795e-06
-5.27674e-07
7.05806e-06
-5.25994e-07
7.10789e-06
-5.23782e-07
7.15741e-06
-5.21043e-07
7.20656e-06
-5.17781e-07
7.2553e-06
-5.14001e-07
7.3036e-06
-5.09707e-07
7.3514e-06
-5.04901e-07
7.39869e-06
-4.99584e-07
7.44542e-06
-4.93758e-07
7.49156e-06
-4.87424e-07
7.53708e-06
-4.80581e-07
7.58197e-06
-4.73229e-07
7.6262e-06
-4.65366e-07
7.66975e-06
-4.5699e-07
7.71262e-06
-4.481e-07
7.75479e-06
-4.38694e-07
7.79628e-06
-4.28769e-07
7.83708e-06
-4.18323e-07
7.87722e-06
-4.07355e-07
7.91671e-06
-3.95865e-07
7.9556e-06
-3.83854e-07
7.99392e-06
-3.71324e-07
8.03174e-06
-3.58282e-07
8.06912e-06
-3.44734e-07
8.10615e-06
-3.30694e-07
8.14293e-06
-3.1618e-07
8.17958e-06
-3.01213e-07
8.21621e-06
-2.85824e-07
8.25298e-06
-2.7005e-07
8.29005e-06
-2.53938e-07
8.32759e-06
-2.37542e-07
8.36578e-06
-2.2093e-07
8.4048e-06
-2.04177e-07
8.44483e-06
-1.87372e-07
8.48605e-06
-1.70611e-07
8.52863e-06
-1.54002e-07
8.57271e-06
-1.37658e-07
8.61838e-06
-1.21698e-07
8.66573e-06
-1.06242e-07
8.71478e-06
-9.14081e-08
8.76552e-06
-7.73067e-08
8.8179e-06
-6.404e-08
8.87178e-06
-5.16883e-08
8.92695e-06
-4.02982e-08
-2.99011e-08
8.98317e-06
6.00742e-06
-5.0801e-08
6.01603e-06
-1.02009e-07
6.02873e-06
-1.47293e-07
6.04517e-06
-1.87995e-07
6.06504e-06
-2.24872e-07
6.08807e-06
-2.58401e-07
6.11399e-06
-2.88985e-07
6.14257e-06
-3.16974e-07
6.17359e-06
-3.42658e-07
6.20685e-06
-3.66278e-07
6.24217e-06
-3.88032e-07
6.27939e-06
-4.08091e-07
6.31836e-06
-4.26597e-07
6.35893e-06
-4.43674e-07
6.40097e-06
-4.59427e-07
6.44437e-06
-4.73947e-07
6.489e-06
-4.87313e-07
6.53475e-06
-4.99595e-07
6.58153e-06
-5.10851e-07
6.62923e-06
-5.21134e-07
6.67777e-06
-5.30492e-07
6.72705e-06
-5.38965e-07
6.77699e-06
-5.46591e-07
6.82751e-06
-5.534e-07
6.87853e-06
-5.59424e-07
6.92998e-06
-5.64687e-07
6.98178e-06
-5.69214e-07
7.03387e-06
-5.73026e-07
7.08617e-06
-5.76143e-07
7.13863e-06
-5.78582e-07
7.19118e-06
-5.80359e-07
7.24375e-06
-5.8149e-07
7.2963e-06
-5.81987e-07
7.34876e-06
-5.81862e-07
7.40108e-06
-5.81129e-07
7.4532e-06
-5.79796e-07
7.50509e-06
-5.77873e-07
7.55668e-06
-5.75369e-07
7.60793e-06
-5.72291e-07
7.6588e-06
-5.68648e-07
7.70925e-06
-5.64446e-07
7.75923e-06
-5.5969e-07
7.80872e-06
-5.54385e-07
7.85768e-06
-5.48538e-07
7.90607e-06