/*--------------------------------*- C++ -*----------------------------------*\
| =========                 |                                                 |
| \\      /  F ield         | OpenFOAM: The Open Source CFD Toolbox           |
|  \\    /   O peration     | Version:  2112                                  |
|   \\  /    A nd           | Website:  www.openfoam.com                      |
|    \\/     M anipulation  |                                                 |
\*---------------------------------------------------------------------------*/
FoamFile
{
    version     2.0;
    format      ascii;
    arch        "LSB;label=32;scalar=64";
    class       volScalarField;
    location    "9";
    object      T;
}
// * * * * * * * * * * * * * * * * * * * * * * * * * * * * * * * * * * * * * //

dimensions      [0 0 0 1 0 0 0];

internalField   nonuniform List<scalar> 
12013
(
300.004
300.011
300.018
300.026
300.034
300.043
300.051
300.06
300.07
300.08
300.09
300.1
300.111
300.122
300.134
300.146
300.158
300.171
300.185
300.198
300.212
300.227
300.242
300.257
300.273
300.29
300.307
300.324
300.342
300.361
300.38
300.399
300.42
300.44
300.462
300.483
300.506
300.529
300.553
300.577
300.602
300.628
300.655
300.682
300.71
300.739
300.768
300.799
300.83
300.862
300.895
300.929
300.963
300.999
301.036
301.073
301.112
301.152
301.193
301.235
301.278
301.323
301.369
301.416
301.465
301.516
301.568
301.622
301.678
301.736
301.797
301.859
301.925
301.994
302.066
302.142
302.223
302.311
302.406
302.511
302.634
300.004
300.011
300.018
300.026
300.034
300.043
300.051
300.06
300.07
300.08
300.09
300.1
300.111
300.122
300.134
300.146
300.158
300.171
300.185
300.198
300.212
300.227
300.242
300.257
300.273
300.29
300.307
300.324
300.342
300.361
300.38
300.399
300.419
300.44
300.462
300.483
300.506
300.529
300.553
300.577
300.602
300.628
300.655
300.682
300.71
300.739
300.768
300.799
300.83
300.862
300.895
300.928
300.963
300.999
301.035
301.073
301.112
301.152
301.192
301.235
301.278
301.323
301.369
301.416
301.465
301.515
301.567
301.621
301.677
301.735
301.795
301.858
301.923
301.991
302.063
302.139
302.219
302.304
302.396
302.496
302.605
300.004
300.011
300.018
300.026
300.034
300.043
300.051
300.06
300.07
300.08
300.09
300.1
300.111
300.122
300.134
300.146
300.158
300.171
300.185
300.198
300.212
300.227
300.242
300.257
300.273
300.29
300.307
300.324
300.342
300.361
300.38
300.399
300.419
300.44
300.461
300.483
300.506
300.529
300.553
300.577
300.602
300.628
300.655
300.682
300.71
300.739
300.768
300.798
300.83
300.861
300.894
300.928
300.963
300.998
301.035
301.073
301.111
301.151
301.192
301.234
301.277
301.322
301.367
301.415
301.463
301.514
301.566
301.619
301.675
301.732
301.792
301.854
301.919
301.986
302.057
302.131
302.209
302.291
302.378
302.47
302.567
300.004
300.011
300.018
300.026
300.034
300.043
300.051
300.06
300.07
300.08
300.09
300.1
300.111
300.122
300.134
300.146
300.158
300.171
300.185
300.198
300.212
300.227
300.242
300.257
300.273
300.29
300.307
300.324
300.342
300.361
300.38
300.399
300.419
300.44
300.461
300.483
300.506
300.529
300.553
300.577
300.602
300.628
300.654
300.682
300.71
300.738
300.768
300.798
300.829
300.861
300.894
300.928
300.962
300.998
301.034
301.072
301.11
301.15
301.191
301.233
301.276
301.32
301.366
301.413
301.461
301.511
301.563
301.616
301.671
301.728
301.787
301.848
301.912
301.978
302.047
302.119
302.194
302.272
302.353
302.437
302.523
300.004
300.011
300.018
300.026
300.034
300.043
300.051
300.06
300.07
300.08
300.09
300.1
300.111
300.122
300.134
300.146
300.158
300.171
300.185
300.198
300.212
300.227
300.242
300.257
300.273
300.29
300.307
300.324
300.342
300.361
300.38
300.399
300.419
300.44
300.461
300.483
300.506
300.529
300.552
300.577
300.602
300.628
300.654
300.681
300.709
300.738
300.767
300.797
300.829
300.86
300.893
300.927
300.961
300.997
301.033
301.07
301.109
301.148
301.189
301.231
301.274
301.318
301.363
301.41
301.458
301.507
301.559
301.611
301.666
301.722
301.78
301.84
301.902
301.966
302.033
302.102
302.173
302.247
302.323
302.4
302.477
300.004
300.011
300.018
300.026
300.034
300.043
300.051
300.06
300.07
300.08
300.09
300.1
300.111
300.122
300.134
300.146
300.158
300.171
300.184
300.198
300.212
300.227
300.242
300.257
300.273
300.29
300.307
300.324
300.342
300.36
300.379
300.399
300.419
300.44
300.461
300.483
300.505
300.528
300.552
300.577
300.602
300.627
300.654
300.681
300.709
300.737
300.767
300.797
300.828
300.859
300.892
300.926
300.96
300.995
301.032
301.069
301.107
301.146
301.187
301.228
301.271
301.314
301.359
301.406
301.453
301.502
301.553
301.605
301.658
301.713
301.77
301.829
301.889
301.951
302.015
302.081
302.149
302.218
302.288
302.359
302.429
300.004
300.011
300.018
300.026
300.034
300.043
300.051
300.06
300.07
300.08
300.09
300.1
300.111
300.122
300.134
300.146
300.158
300.171
300.184
300.198
300.212
300.227
300.242
300.257
300.273
300.29
300.307
300.324
300.342
300.36
300.379
300.399
300.419
300.44
300.461
300.483
300.505
300.528
300.552
300.576
300.601
300.627
300.653
300.68
300.708
300.736
300.766
300.796
300.827
300.858
300.891
300.924
300.958
300.993
301.03
301.067
301.105
301.144
301.184
301.225
301.267
301.31
301.355
301.401
301.448
301.496
301.545
301.596
301.649
301.703
301.758
301.815
301.873
301.933
301.994
302.057
302.12
302.185
302.25
302.315
302.38
300.004
300.011
300.018
300.026
300.034
300.043
300.051
300.06
300.07
300.08
300.09
300.1
300.111
300.122
300.134
300.146
300.158
300.171
300.184
300.198
300.212
300.227
300.242
300.257
300.273
300.289
300.306
300.324
300.342
300.36
300.379
300.399
300.419
300.439
300.46
300.482
300.505
300.528
300.551
300.576
300.6
300.626
300.652
300.679
300.707
300.735
300.765
300.795
300.825
300.857
300.889
300.922
300.956
300.991
301.027
301.064
301.101
301.14
301.18
301.22
301.262
301.305
301.349
301.394
301.44
301.488
301.536
301.586
301.637
301.689
301.743
301.798
301.854
301.911
301.969
302.028
302.088
302.148
302.209
302.269
302.328
300.004
300.011
300.018
300.026
300.034
300.043
300.051
300.06
300.07
300.08
300.09
300.1
300.111
300.122
300.134
300.146
300.158
300.171
300.184
300.198
300.212
300.227
300.242
300.257
300.273
300.289
300.306
300.324
300.341
300.36
300.379
300.398
300.418
300.439
300.46
300.482
300.504
300.527
300.551
300.575
300.6
300.625
300.651
300.678
300.706
300.734
300.763
300.793
300.823
300.855
300.887
300.92
300.954
300.988
301.024
301.06
301.098
301.136
301.175
301.215
301.256
301.298
301.342
301.386
301.431
301.477
301.525
301.573
301.623
301.674
301.725
301.778
301.832
301.886
301.941
301.997
302.053
302.109
302.165
302.221
302.276
300.004
300.011
300.018
300.026
300.034
300.043
300.051
300.06
300.07
300.08
300.09
300.1
300.111
300.122
300.134
300.146
300.158
300.171
300.184
300.198
300.212
300.226
300.241
300.257
300.273
300.289
300.306
300.323
300.341
300.36
300.378
300.398
300.418
300.438
300.46
300.481
300.503
300.526
300.55
300.574
300.599
300.624
300.65
300.677
300.704
300.733
300.761
300.791
300.821
300.852
300.884
300.917
300.95
300.985
301.02
301.056
301.093
301.13
301.169
301.209
301.249
301.29
301.333
301.376
301.42
301.465
301.512
301.559
301.607
301.655
301.705
301.755
301.806
301.858
301.91
301.962
302.015
302.067
302.12
302.171
302.222
300.004
300.011
300.018
300.026
300.034
300.043
300.051
300.06
300.07
300.08
300.09
300.1
300.111
300.122
300.134
300.146
300.158
300.171
300.184
300.198
300.212
300.226
300.241
300.257
300.273
300.289
300.306
300.323
300.341
300.359
300.378
300.397
300.417
300.438
300.459
300.48
300.503
300.525
300.549
300.573
300.598
300.623
300.649
300.675
300.703
300.731
300.759
300.789
300.819
300.849
300.881
300.913
300.947
300.98
301.015
301.051
301.087
301.124
301.162
301.201
301.241
301.281
301.322
301.365
301.408
301.451
301.496
301.541
301.588
301.634
301.682
301.73
301.778
301.827
301.876
301.925
301.975
302.023
302.072
302.12
302.168
300.004
300.011
300.018
300.026
300.034
300.043
300.051
300.06
300.07
300.079
300.09
300.1
300.111
300.122
300.134
300.146
300.158
300.171
300.184
300.198
300.212
300.226
300.241
300.256
300.272
300.289
300.305
300.323
300.34
300.359
300.378
300.397
300.417
300.437
300.458
300.48
300.502
300.524
300.548
300.572
300.596
300.621
300.647
300.673
300.7
300.728
300.757
300.786
300.815
300.846
300.877
300.909
300.942
300.975
301.009
301.044
301.08
301.117
301.154
301.192
301.23
301.27
301.31
301.351
301.393
301.435
301.478
301.522
301.566
301.611
301.656
301.702
301.748
301.794
301.84
301.886
301.932
301.978
302.023
302.068
302.112
300.004
300.011
300.018
300.026
300.034
300.042
300.051
300.06
300.07
300.079
300.09
300.1
300.111
300.122
300.134
300.146
300.158
300.171
300.184
300.197
300.211
300.226
300.241
300.256
300.272
300.288
300.305
300.322
300.34
300.358
300.377
300.396
300.416
300.436
300.457
300.479
300.501
300.523
300.546
300.57
300.594
300.619
300.645
300.671
300.698
300.725
300.753
300.782
300.812
300.842
300.873
300.904
300.936
300.969
301.003
301.037
301.072
301.108
301.144
301.181
301.219
301.257
301.296
301.336
301.376
301.417
301.458
301.5
301.542
301.585
301.628
301.671
301.715
301.758
301.801
301.845
301.888
301.93
301.973
302.014
302.055
300.004
300.011
300.018
300.026
300.034
300.042
300.051
300.06
300.07
300.079
300.089
300.1
300.111
300.122
300.133
300.145
300.158
300.171
300.184
300.197
300.211
300.226
300.241
300.256
300.272
300.288
300.305
300.322
300.339
300.358
300.376
300.395
300.415
300.435
300.456
300.477
300.499
300.522
300.545
300.568
300.592
300.617
300.642
300.668
300.695
300.722
300.75
300.778
300.807
300.837
300.867
300.898
300.93
300.962
300.995
301.029
301.063
301.098
301.133
301.169
301.206
301.243
301.28
301.319
301.357
301.397
301.436
301.476
301.516
301.557
301.598
301.638
301.679
301.72
301.761
301.801
301.842
301.881
301.921
301.96
301.998
300.004
300.011
300.018
300.026
300.034
300.042
300.051
300.06
300.07
300.079
300.089
300.1
300.111
300.122
300.133
300.145
300.158
300.17
300.183
300.197
300.211
300.225
300.24
300.255
300.271
300.287
300.304
300.321
300.339
300.357
300.375
300.394
300.414
300.434
300.455
300.476
300.498
300.52
300.543
300.566
300.59
300.614
300.639
300.665
300.691
300.718
300.745
300.773
300.802
300.831
300.861
300.891
300.922
300.954
300.986
301.019
301.052
301.086
301.12
301.155
301.191
301.227
301.263
301.3
301.337
301.374
301.412
301.45
301.488
301.527
301.565
301.604
301.642
301.68
301.718
301.756
301.794
301.831
301.868
301.904
301.94
300.004
300.011
300.018
300.026
300.034
300.042
300.051
300.06
300.07
300.079
300.089
300.1
300.11
300.122
300.133
300.145
300.157
300.17
300.183
300.197
300.211
300.225
300.24
300.255
300.271
300.287
300.303
300.32
300.338
300.356
300.374
300.393
300.413
300.433
300.453
300.474
300.496
300.518
300.54
300.563
300.587
300.611
300.636
300.661
300.687
300.714
300.74
300.768
300.796
300.825
300.854
300.884
300.914
300.945
300.976
301.008
301.04
301.073
301.106
301.14
301.174
301.209
301.243
301.279
301.314
301.35
301.386
301.422
301.458
301.494
301.531
301.567
301.603
301.639
301.675
301.71
301.745
301.78
301.814
301.848
301.882
300.004
300.011
300.018
300.026
300.034
300.042
300.051
300.06
300.069
300.079
300.089
300.1
300.11
300.121
300.133
300.145
300.157
300.17
300.183
300.196
300.21
300.225
300.239
300.254
300.27
300.286
300.303
300.319
300.337
300.355
300.373
300.392
300.411
300.431
300.451
300.472
300.493
300.515
300.538
300.56
300.584
300.608
300.632
300.657
300.682
300.708
300.735
300.762
300.789
300.817
300.846
300.875
300.904
300.934
300.965
300.995
301.027
301.058
301.09
301.123
301.156
301.189
301.222
301.256
301.29
301.324
301.358
301.392
301.426
301.46
301.494
301.528
301.562
301.596
301.63
301.663
301.696
301.728
301.76
301.792
301.823
300.004
300.011
300.018
300.026
300.034
300.042
300.051
300.06
300.069
300.079
300.089
300.099
300.11
300.121
300.133
300.145
300.157
300.169
300.182
300.196
300.21
300.224
300.239
300.254
300.269
300.285
300.302
300.318
300.336
300.353
300.372
300.39
300.409
300.429
300.449
300.47
300.491
300.512
300.534
300.557
300.58
300.603
300.627
300.652
300.677
300.702
300.728
300.755
300.781
300.809
300.837
300.865
300.893
300.922
300.952
300.982
301.012
301.042
301.073
301.104
301.136
301.167
301.199
301.231
301.263
301.296
301.328
301.36
301.392
301.425
301.457
301.489
301.521
301.552
301.583
301.614
301.645
301.676
301.706
301.735
301.764
300.003
300.011
300.018
300.026
300.034
300.042
300.051
300.06
300.069
300.079
300.089
300.099
300.11
300.121
300.132
300.144
300.156
300.169
300.182
300.195
300.209
300.223
300.238
300.253
300.268
300.284
300.301
300.317
300.334
300.352
300.37
300.389
300.407
300.427
300.447
300.467
300.488
300.509
300.531
300.553
300.576
300.599
300.622
300.646
300.671
300.696
300.721
300.747
300.773
300.799
300.826
300.854
300.881
300.91
300.938
300.967
300.996
301.025
301.055
301.084
301.114
301.144
301.175
301.205
301.236
301.266
301.297
301.327
301.357
301.388
301.418
301.448
301.478
301.507
301.537
301.566
301.594
301.623
301.651
301.678
301.705
300.003
300.011
300.018
300.026
300.034
300.042
300.051
300.06
300.069
300.079
300.089
300.099
300.11
300.121
300.132
300.144
300.156
300.169
300.182
300.195
300.209
300.223
300.237
300.252
300.267
300.283
300.299
300.316
300.333
300.35
300.368
300.386
300.405
300.424
300.444
300.464
300.484
300.505
300.527
300.549
300.571
300.593
300.616
300.64
300.664
300.688
300.713
300.738
300.763
300.789
300.815
300.842
300.868
300.895
300.923
300.95
300.978
301.006
301.034
301.063
301.091
301.12
301.149
301.178
301.206
301.235
301.264
301.293
301.321
301.35
301.378
301.406
301.434
301.462
301.489
301.516
301.543
301.569
301.596
301.621
301.647
300.003
300.011
300.018
300.026
300.034
300.042
300.051
300.06
300.069
300.079
300.088
300.099
300.109
300.12
300.132
300.144
300.156
300.168
300.181
300.194
300.208
300.222
300.236
300.251
300.266
300.282
300.298
300.314
300.331
300.348
300.366
300.384
300.403
300.421
300.441
300.461
300.481
300.501
300.522
300.544
300.565
300.587
300.61
300.633
300.656
300.68
300.704
300.728
300.753
300.778
300.803
300.828
300.854
300.88
300.906
300.933
300.959
300.986
301.013
301.04
301.067
301.094
301.122
301.149
301.176
301.203
301.23
301.257
301.284
301.311
301.337
301.364
301.39
301.416
301.441
301.467
301.492
301.516
301.541
301.565
301.588
300.003
300.011
300.018
300.026
300.034
300.042
300.051
300.059
300.069
300.078
300.088
300.098
300.109
300.12
300.131
300.143
300.155
300.167
300.18
300.193
300.207
300.221
300.235
300.25
300.265
300.28
300.296
300.312
300.329
300.346
300.364
300.381
300.4
300.418
300.437
300.457
300.476
300.497
300.517
300.538
300.559
300.581
300.603
300.625
300.648
300.671
300.694
300.717
300.741
300.765
300.789
300.814
300.839
300.864
300.889
300.914
300.939
300.965
300.991
301.016
301.042
301.068
301.093
301.119
301.145
301.17
301.196
301.221
301.246
301.271
301.296
301.321
301.345
301.369
301.393
301.417
301.44
301.463
301.486
301.509
301.531
300.003
300.011
300.018
300.026
300.034
300.042
300.05
300.059
300.069
300.078
300.088
300.098
300.109
300.12
300.131
300.143
300.154
300.167
300.179
300.193
300.206
300.22
300.234
300.249
300.263
300.279
300.294
300.31
300.327
300.344
300.361
300.378
300.396
300.415
300.433
300.452
300.472
300.491
300.511
300.532
300.553
300.574
300.595
300.617
300.638
300.661
300.683
300.706
300.729
300.752
300.775
300.799
300.823
300.846
300.87
300.894
300.919
300.943
300.967
300.991
301.016
301.04
301.064
301.089
301.113
301.137
301.161
301.184
301.208
301.232
301.255
301.278
301.301
301.323
301.346
301.368
301.39
301.411
301.432
301.453
301.474
300.003
300.011
300.018
300.025
300.033
300.042
300.05
300.059
300.068
300.078
300.088
300.098
300.108
300.119
300.13
300.142
300.154
300.166
300.179
300.192
300.205
300.219
300.233
300.247
300.262
300.277
300.292
300.308
300.324
300.341
300.358
300.375
300.393
300.411
300.429
300.448
300.466
300.486
300.505
300.525
300.545
300.566
300.586
300.607
300.629
300.65
300.672
300.694
300.716
300.738
300.76
300.783
300.805
300.828
300.851
300.874
300.897
300.92
300.943
300.966
300.989
301.012
301.035
301.058
301.08
301.103
301.125
301.148
301.17
301.192
301.214
301.235
301.257
301.278
301.299
301.319
301.34
301.36
301.38
301.399
301.418
300.003
300.01
300.018
300.025
300.033
300.042
300.05
300.059
300.068
300.077
300.087
300.097
300.108
300.119
300.13
300.141
300.153
300.165
300.178
300.19
300.204
300.217
300.231
300.245
300.26
300.275
300.29
300.306
300.322
300.338
300.355
300.371
300.389
300.406
300.424
300.442
300.461
300.48
300.499
300.518
300.538
300.557
300.577
300.598
300.618
300.639
300.66
300.681
300.702
300.723
300.745
300.766
300.788
300.809
300.831
300.853
300.875
300.897
300.918
300.94
300.962
300.983
301.005
301.026
301.048
301.069
301.09
301.111
301.132
301.152
301.173
301.193
301.213
301.233
301.252
301.272
301.291
301.309
301.328
301.346
301.364
300.003
300.01
300.018
300.025
300.033
300.041
300.05
300.059
300.068
300.077
300.087
300.097
300.107
300.118
300.129
300.14
300.152
300.164
300.177
300.189
300.202
300.216
300.229
300.244
300.258
300.273
300.288
300.303
300.319
300.335
300.351
300.368
300.384
300.402
300.419
300.437
300.455
300.473
300.492
300.51
300.529
300.548
300.568
300.587
300.607
300.627
300.647
300.667
300.687
300.708
300.728
300.749
300.769
300.79
300.811
300.831
300.852
300.873
300.893
300.914
300.934
300.955
300.975
300.995
301.015
301.035
301.055
301.075
301.094
301.114
301.133
301.152
301.17
301.189
301.207
301.225
301.243
301.261
301.278
301.295
301.312
300.003
300.01
300.018
300.025
300.033
300.041
300.05
300.058
300.067
300.077
300.086
300.096
300.107
300.117
300.128
300.14
300.151
300.163
300.175
300.188
300.201
300.214
300.228
300.242
300.256
300.27
300.285
300.3
300.315
300.331
300.347
300.363
300.38
300.397
300.414
300.431
300.448
300.466
300.484
300.502
300.521
300.539
300.558
300.577
300.596
300.615
300.634
300.653
300.673
300.692
300.712
300.731
300.751
300.771
300.79
300.81
300.829
300.849
300.868
300.888
300.907
300.926
300.946
300.965
300.983
301.002
301.021
301.039
301.058
301.076
301.094
301.111
301.129
301.146
301.163
301.18
301.197
301.213
301.23
301.246
301.261
300.003
300.01
300.018
300.025
300.033
300.041
300.049
300.058
300.067
300.076
300.086
300.096
300.106
300.117
300.127
300.139
300.15
300.162
300.174
300.187
300.199
300.212
300.226
300.239
300.253
300.268
300.282
300.297
300.312
300.327
300.343
300.359
300.375
300.391
300.408
300.425
300.442
300.459
300.476
300.494
300.512
300.53
300.548
300.566
300.584
300.602
300.621
300.639
300.658
300.676
300.695
300.714
300.732
300.751
300.77
300.788
300.807
300.825
300.844
300.862
300.88
300.899
300.917
300.935
300.952
300.97
300.988
301.005
301.022
301.039
301.056
301.073
301.089
301.105
301.121
301.137
301.153
301.168
301.183
301.198
301.213
300.003
300.01
300.017
300.025
300.033
300.041
300.049
300.058
300.067
300.076
300.085
300.095
300.105
300.116
300.127
300.138
300.149
300.161
300.173
300.185
300.198
300.21
300.224
300.237
300.251
300.265
300.279
300.294
300.308
300.323
300.339
300.354
300.37
300.386
300.402
300.418
300.435
300.452
300.468
300.485
300.503
300.52
300.537
300.555
300.572
300.59
300.607
300.625
300.643
300.661
300.679
300.696
300.714
300.732
300.75
300.767
300.785
300.802
300.82
300.837
300.855
300.872
300.889
300.906
300.922
300.939
300.956
300.972
300.988
301.004
301.02
301.036
301.051
301.066
301.081
301.096
301.111
301.126
301.14
301.154
301.168
300.003
300.01
300.017
300.025
300.032
300.04
300.049
300.057
300.066
300.075
300.085
300.095
300.105
300.115
300.126
300.137
300.148
300.159
300.171
300.183
300.196
300.209
300.221
300.235
300.248
300.262
300.276
300.29
300.305
300.319
300.334
300.349
300.365
300.38
300.396
300.412
300.428
300.444
300.46
300.477
300.493
300.51
300.527
300.544
300.56
300.577
300.594
300.611
300.628
300.645
300.662
300.679
300.696
300.713
300.73
300.747
300.764
300.78
300.797
300.813
300.83
300.846
300.862
300.878
300.894
300.91
300.925
300.941
300.956
300.971
300.986
301.001
301.015
301.03
301.044
301.058
301.072
301.086
301.099
301.112
301.125
300.003
300.01
300.017
300.025
300.032
300.04
300.048
300.057
300.066
300.075
300.084
300.094
300.104
300.114
300.125
300.136
300.147
300.158
300.17
300.182
300.194
300.206
300.219
300.232
300.246
300.259
300.273
300.287
300.301
300.315
300.33
300.345
300.36
300.375
300.39
300.405
300.421
300.437
300.452
300.468
300.484
300.5
300.517
300.533
300.549
300.565
300.582
300.598
300.614
300.63
300.647
300.663
300.679
300.695
300.711
300.727
300.743
300.759
300.775
300.791
300.806
300.822
300.837
300.852
300.867
300.882
300.897
300.911
300.926
300.94
300.954
300.968
300.982
300.996
301.009
301.023
301.036
301.049
301.061
301.074
301.086
300.003
300.01
300.017
300.024
300.032
300.04
300.048
300.057
300.065
300.074
300.084
300.093
300.103
300.113
300.124
300.134
300.145
300.157
300.168
300.18
300.192
300.204
300.217
300.23
300.243
300.256
300.27
300.283
300.297
300.311
300.326
300.34
300.355
300.369
300.384
300.399
300.414
300.429
300.445
300.46
300.476
300.491
300.507
300.522
300.538
300.554
300.569
300.585
300.601
300.616
300.632
300.648
300.663
300.679
300.694
300.709
300.725
300.74
300.755
300.77
300.785
300.799
300.814
300.828
300.843
300.857
300.871
300.885
300.898
300.912
300.925
300.939
300.952
300.965
300.978
300.99
301.003
301.015
301.027
301.039
301.051
300.003
300.01
300.017
300.024
300.032
300.04
300.048
300.056
300.065
300.074
300.083
300.092
300.102
300.112
300.123
300.133
300.144
300.155
300.167
300.178
300.19
300.202
300.215
300.227
300.24
300.253
300.267
300.28
300.294
300.307
300.321
300.335
300.35
300.364
300.379
300.393
300.408
300.423
300.438
300.453
300.468
300.483
300.498
300.513
300.528
300.543
300.558
300.573
300.588
300.604
300.619
300.634
300.648
300.663
300.678
300.693
300.707
300.722
300.736
300.751
300.765
300.779
300.793
300.807
300.82
300.834
300.847
300.861
300.874
300.887
300.9
300.912
300.925
300.937
300.949
300.961
300.973
300.985
300.997
301.008
301.019
300.003
300.01
300.017
300.024
300.032
300.039
300.047
300.056
300.064
300.073
300.082
300.092
300.101
300.111
300.122
300.132
300.143
300.154
300.165
300.177
300.189
300.2
300.213
300.225
300.238
300.251
300.264
300.277
300.29
300.304
300.317
300.331
300.345
300.359
300.373
300.388
300.402
300.416
300.431
300.445
300.46
300.475
300.489
300.504
300.519
300.533
300.548
300.563
300.577
300.592
300.606
300.621
300.635
300.65
300.664
300.678
300.692
300.706
300.72
300.734
300.747
300.761
300.774
300.788
300.801
300.814
300.827
300.84
300.852
300.865
300.877
300.889
300.901
300.913
300.925
300.936
300.948
300.959
300.97
300.981
300.992
300.003
300.01
300.017
300.024
300.031
300.039
300.047
300.055
300.064
300.073
300.082
300.091
300.101
300.111
300.121
300.131
300.142
300.153
300.164
300.175
300.187
300.199
300.211
300.223
300.235
300.248
300.261
300.274
300.287
300.3
300.314
300.327
300.341
300.355
300.369
300.383
300.397
300.411
300.425
300.439
300.454
300.468
300.482
300.496
300.511
300.525
300.539
300.554
300.568
300.582
300.596
300.61
300.624
300.638
300.652
300.666
300.679
300.693
300.706
300.719
300.733
300.746
300.759
300.772
300.784
300.797
300.809
300.822
300.834
300.846
300.858
300.87
300.881
300.893
300.904
300.915
300.926
300.937
300.948
300.959
300.969
300.003
300.01
300.017
300.024
300.031
300.039
300.047
300.055
300.063
300.072
300.081
300.09
300.1
300.11
300.12
300.13
300.141
300.152
300.163
300.174
300.185
300.197
300.209
300.221
300.233
300.246
300.259
300.271
300.284
300.297
300.311
300.324
300.338
300.351
300.365
300.378
300.392
300.406
300.42
300.434
300.448
300.462
300.476
300.49
300.504
300.518
300.532
300.546
300.56
300.574
300.587
300.601
300.615
300.628
300.642
300.655
300.668
300.682
300.695
300.708
300.721
300.733
300.746
300.759
300.771
300.783
300.795
300.807
300.819
300.831
300.843
300.854
300.865
300.876
300.887
300.898
300.909
300.92
300.93
300.94
300.951
300.003
300.01
300.017
300.024
300.031
300.039
300.046
300.055
300.063
300.072
300.081
300.09
300.099
300.109
300.119
300.129
300.14
300.151
300.162
300.173
300.184
300.196
300.208
300.22
300.232
300.244
300.257
300.269
300.282
300.295
300.308
300.321
300.335
300.348
300.362
300.375
300.389
300.402
300.416
300.43
300.444
300.457
300.471
300.485
300.499
300.513
300.526
300.54
300.554
300.567
300.581
300.594
300.608
300.621
300.634
300.647
300.66
300.673
300.686
300.699
300.711
300.724
300.736
300.749
300.761
300.773
300.785
300.796
300.808
300.82
300.831
300.842
300.853
300.864
300.875
300.886
300.896
300.906
300.917
300.927
300.937
300.003
300.01
300.016
300.024
300.031
300.038
300.046
300.054
300.063
300.071
300.08
300.089
300.099
300.109
300.119
300.129
300.139
300.15
300.161
300.172
300.183
300.195
300.206
300.218
300.23
300.243
300.255
300.268
300.281
300.293
300.306
300.319
300.333
300.346
300.359
300.373
300.386
300.4
300.413
300.427
300.44
300.454
300.468
300.481
300.495
300.509
300.522
300.536
300.549
300.563
300.576
300.589
300.602
300.616
300.629
300.642
300.654
300.667
300.68
300.693
300.705
300.717
300.73
300.742
300.754
300.765
300.777
300.789
300.8
300.812
300.823
300.834
300.845
300.856
300.866
300.877
300.887
300.897
300.907
300.917
300.927
300.003
300.01
300.016
300.023
300.031
300.038
300.046
300.054
300.063
300.071
300.08
300.089
300.099
300.108
300.118
300.128
300.139
300.149
300.16
300.171
300.183
300.194
300.206
300.218
300.23
300.242
300.254
300.267
300.279
300.292
300.305
300.318
300.331
300.344
300.358
300.371
300.384
300.398
300.411
300.425
300.438
300.452
300.466
300.479
300.493
300.506
300.52
300.533
300.546
300.56
300.573
300.586
300.599
300.612
300.625
300.638
300.651
300.664
300.676
300.689
300.701
300.713
300.726
300.738
300.749
300.761
300.773
300.784
300.796
300.807
300.818
300.829
300.84
300.851
300.861
300.872
300.882
300.892
300.902
300.912
300.921
300.003
300.01
300.016
300.023
300.031
300.038
300.046
300.054
300.062
300.071
300.08
300.089
300.098
300.108
300.118
300.128
300.138
300.149
300.16
300.171
300.182
300.194
300.205
300.217
300.229
300.241
300.254
300.266
300.279
300.292
300.304
300.317
300.331
300.344
300.357
300.37
300.384
300.397
300.411
300.424
300.438
300.451
300.465
300.478
300.492
300.505
300.518
300.532
300.545
300.558
300.572
300.585
300.598
300.611
300.624
300.637
300.649
300.662
300.675
300.687
300.699
300.712
300.724
300.736
300.748
300.759
300.771
300.782
300.794
300.805
300.816
300.827
300.838
300.848
300.859
300.869
300.88
300.89
300.9
300.909
300.919
300.003
300.01
300.016
300.023
300.031
300.038
300.046
300.054
300.062
300.071
300.08
300.089
300.098
300.108
300.118
300.128
300.138
300.149
300.16
300.171
300.182
300.193
300.205
300.217
300.229
300.241
300.254
300.266
300.279
300.291
300.304
300.317
300.33
300.344
300.357
300.37
300.383
300.397
300.41
300.424
300.437
300.451
300.464
300.478
300.491
300.505
300.518
300.532
300.545
300.558
300.571
300.585
300.598
300.611
300.624
300.636
300.649
300.662
300.674
300.687
300.699
300.711
300.723
300.735
300.747
300.759
300.771
300.782
300.793
300.805
300.816
300.827
300.837
300.848
300.859
300.869
300.879
300.889
300.899
300.909
300.919
302.789
302.91
303.012
303.101
303.181
303.253
303.318
303.379
303.434
303.486
303.534
303.578
303.62
303.658
303.694
303.728
303.76
303.79
303.819
303.847
303.873
303.9
303.926
303.954
303.981
304.01
304.038
304.065
304.093
304.121
304.148
304.175
304.202
304.229
304.255
304.282
304.308
304.334
304.36
304.385
304.411
304.436
304.462
304.487
304.512
304.537
304.563
304.588
304.612
304.637
304.662
304.687
304.712
304.736
304.761
304.786
304.81
304.835
304.859
304.883
304.908
304.932
304.957
304.981
305.005
305.03
305.054
305.078
305.102
305.127
305.151
305.175
305.199
305.224
305.248
305.272
305.297
305.321
305.345
305.37
305.394
305.418
305.443
305.467
305.491
305.516
305.54
305.565
305.59
305.614
305.639
305.663
305.688
305.713
305.737
305.762
305.787
305.812
305.837
305.862
305.887
305.911
305.936
305.961
305.986
306.012
306.037
306.062
306.087
306.112
306.137
306.162
306.187
306.212
306.237
306.261
306.286
306.311
306.335
306.359
306.384
306.408
306.431
306.455
306.478
306.501
306.524
306.546
306.567
306.589
306.609
306.629
306.648
306.667
306.684
306.701
306.716
306.73
306.743
306.755
306.765
306.773
306.779
306.784
306.786
306.785
306.782
306.776
306.767
306.754
306.737
306.717
306.691
306.66
306.624
306.581
306.536
306.481
306.403
306.286
306.107
302.723
302.832
302.929
303.016
303.095
303.167
303.233
303.295
303.352
303.404
303.454
303.5
303.543
303.583
303.62
303.656
303.69
303.722
303.752
303.781
303.81
303.838
303.866
303.894
303.923
303.951
303.98
304.008
304.036
304.064
304.092
304.119
304.147
304.174
304.201
304.228
304.254
304.28
304.307
304.333
304.358
304.384
304.41
304.436
304.461
304.487
304.512
304.537
304.563
304.588
304.613
304.638
304.663
304.688
304.713
304.737
304.762
304.787
304.812
304.836
304.861
304.885
304.91
304.935
304.959
304.984
305.008
305.033
305.057
305.082
305.106
305.131
305.155
305.179
305.204
305.228
305.253
305.277
305.302
305.327
305.351
305.376
305.4
305.425
305.45
305.474
305.499
305.524
305.548
305.573
305.598
305.623
305.648
305.673
305.698
305.723
305.748
305.773
305.798
305.823
305.848
305.873
305.899
305.924
305.949
305.974
306
306.025
306.05
306.076
306.101
306.126
306.151
306.177
306.202
306.227
306.252
306.277
306.301
306.326
306.35
306.375
306.399
306.423
306.446
306.469
306.492
306.515
306.537
306.558
306.579
306.599
306.618
306.637
306.655
306.672
306.687
306.702
306.715
306.727
306.737
306.745
306.752
306.756
306.758
306.758
306.755
306.749
306.74
306.727
306.71
306.689
306.663
306.632
306.595
306.551
306.503
306.444
306.362
306.242
306.061
302.665
302.761
302.851
302.934
303.011
303.082
303.148
303.21
303.267
303.321
303.371
303.418
303.463
303.504
303.543
303.581
303.616
303.649
303.682
303.713
303.743
303.772
303.802
303.831
303.86
303.889
303.918
303.947
303.976
304.004
304.032
304.06
304.088
304.116
304.143
304.17
304.197
304.224
304.25
304.277
304.303
304.329
304.355
304.381
304.407
304.433
304.458
304.484
304.509
304.535
304.56
304.585