/*--------------------------------*- C++ -*----------------------------------*\
| =========                 |                                                 |
| \\      /  F ield         | OpenFOAM: The Open Source CFD Toolbox           |
|  \\    /   O peration     | Version:  2112                                  |
|   \\  /    A nd           | Website:  www.openfoam.com                      |
|    \\/     M anipulation  |                                                 |
\*---------------------------------------------------------------------------*/
FoamFile
{
    version     2.0;
    format      ascii;
    arch        "LSB;label=32;scalar=64";
    class       volVectorField;
    location    "9";
    object      U;
}
// * * * * * * * * * * * * * * * * * * * * * * * * * * * * * * * * * * * * * //

dimensions      [0 1 -1 0 0 0 0];

internalField   nonuniform List<vector> 
12013
(
(0.100039 -1.07997e-05 0)
(0.100197 -2.00087e-05 0)
(0.100455 -2.85768e-05 0)
(0.100788 -3.65004e-05 0)
(0.101191 -4.3963e-05 0)
(0.101656 -5.1067e-05 0)
(0.102179 -5.78776e-05 0)
(0.102753 -6.44467e-05 0)
(0.103376 -7.08137e-05 0)
(0.104043 -7.70092e-05 0)
(0.10475 -8.30575e-05 0)
(0.105495 -8.89783e-05 0)
(0.106275 -9.47877e-05 0)
(0.107087 -0.000100498 0)
(0.107929 -0.000106121 0)
(0.108799 -0.000111663 0)
(0.109695 -0.000117132 0)
(0.110615 -0.000122533 0)
(0.111556 -0.00012787 0)
(0.112519 -0.000133144 0)
(0.1135 -0.000138359 0)
(0.114498 -0.000143514 0)
(0.115512 -0.000148609 0)
(0.116541 -0.000153644 0)
(0.117582 -0.000158616 0)
(0.118636 -0.000163523 0)
(0.119699 -0.000168363 0)
(0.120772 -0.000173131 0)
(0.121853 -0.000177824 0)
(0.122941 -0.000182436 0)
(0.124034 -0.000186961 0)
(0.125131 -0.000191394 0)
(0.126232 -0.000195728 0)
(0.127336 -0.000199953 0)
(0.12844 -0.000204063 0)
(0.129544 -0.000208047 0)
(0.130648 -0.000211894 0)
(0.131749 -0.000215593 0)
(0.132846 -0.000219132 0)
(0.13394 -0.000222495 0)
(0.135028 -0.000225666 0)
(0.136109 -0.000228629 0)
(0.137183 -0.000231364 0)
(0.138247 -0.000233848 0)
(0.139302 -0.000236058 0)
(0.140345 -0.000237964 0)
(0.141376 -0.000239537 0)
(0.142393 -0.00024074 0)
(0.143394 -0.000241534 0)
(0.144378 -0.000241873 0)
(0.145344 -0.000241703 0)
(0.14629 -0.000240965 0)
(0.147214 -0.000239588 0)
(0.148115 -0.00023749 0)
(0.148989 -0.000234575 0)
(0.149835 -0.00023073 0)
(0.15065 -0.000225821 0)
(0.151431 -0.000219689 0)
(0.152175 -0.000212141 0)
(0.152878 -0.000202942 0)
(0.153536 -0.000191808 0)
(0.154144 -0.000178386 0)
(0.154695 -0.000162235 0)
(0.155184 -0.000142799 0)
(0.155602 -0.000119367 0)
(0.155939 -9.10207e-05 0)
(0.156182 -5.65493e-05 0)
(0.156317 -1.43376e-05 0)
(0.156324 3.78253e-05 0)
(0.156179 0.00010308 0)
(0.155849 0.000185919 0)
(0.155292 0.000292956 0)
(0.154446 0.000434235 0)
(0.153229 0.000625512 0)
(0.151516 0.000892374 0)
(0.149123 0.00127786 0)
(0.145764 0.00185706 0)
(0.140961 0.00276917 0)
(0.133918 0.00431546 0)
(0.123525 0.00738421 0)
(0.11159 0.0161633 0)
(0.100036 -3.2975e-05 0)
(0.100194 -6.13461e-05 0)
(0.10045 -8.76602e-05 0)
(0.100782 -0.000111978 0)
(0.101184 -0.000134881 0)
(0.101649 -0.000156682 0)
(0.10217 -0.00017758 0)
(0.102744 -0.000197735 0)
(0.103365 -0.000217269 0)
(0.104031 -0.000236276 0)
(0.104737 -0.000254829 0)
(0.105481 -0.000272991 0)
(0.10626 -0.00029081 0)
(0.107071 -0.000308324 0)
(0.107912 -0.000325567 0)
(0.108781 -0.000342564 0)
(0.109675 -0.000359336 0)
(0.110594 -0.000375897 0)
(0.111534 -0.000392259 0)
(0.112495 -0.000408431 0)
(0.113475 -0.000424418 0)
(0.114472 -0.000440221 0)
(0.115484 -0.000455839 0)
(0.116511 -0.000471271 0)
(0.117551 -0.000486511 0)
(0.118603 -0.000501551 0)
(0.119665 -0.000516383 0)
(0.120736 -0.000530995 0)
(0.121815 -0.000545374 0)
(0.122901 -0.000559505 0)
(0.123993 -0.00057337 0)
(0.125088 -0.000586951 0)
(0.126188 -0.000600225 0)
(0.127289 -0.000613168 0)
(0.128391 -0.000625754 0)
(0.129493 -0.000637954 0)
(0.130594 -0.000649735 0)
(0.131693 -0.000661062 0)
(0.132789 -0.000671894 0)
(0.13388 -0.000682189 0)
(0.134966 -0.000691897 0)
(0.136045 -0.000700964 0)
(0.137116 -0.000709331 0)
(0.138178 -0.00071693 0)
(0.13923 -0.000723687 0)
(0.140271 -0.000729516 0)
(0.141299 -0.000734321 0)
(0.142313 -0.000737997 0)
(0.143312 -0.000740418 0)
(0.144294 -0.000741446 0)
(0.145258 -0.00074092 0)
(0.146201 -0.000738653 0)
(0.147123 -0.000734433 0)
(0.148021 -0.00072801 0)
(0.148893 -0.000719091 0)
(0.149737 -0.000707333 0)
(0.15055 -0.000692328 0)
(0.151329 -0.00067359 0)
(0.152072 -0.000650536 0)
(0.152774 -0.000622457 0)
(0.153431 -0.000588489 0)
(0.154039 -0.000547564 0)
(0.154593 -0.000498355 0)
(0.155084 -0.000439187 0)
(0.155506 -0.000367927 0)
(0.155849 -0.000281823 0)
(0.156102 -0.000177267 0)
(0.15625 -4.94655e-05 0)
(0.156277 0.000108078 0)
(0.156159 0.000304442 0)
(0.15587 0.000552511 0)
(0.155372 0.000870983 0)
(0.154617 0.00128772 0)
(0.153538 0.00184535 0)
(0.152049 0.0026109 0)
(0.150027 0.00369224 0)
(0.14731 0.0052658 0)
(0.143674 0.00762283 0)
(0.138846 0.0112482 0)
(0.132838 0.0168606 0)
(0.127966 0.0248583 0)
(0.100033 -5.60503e-05 0)
(0.100189 -0.000105227 0)
(0.100443 -0.000150549 0)
(0.100773 -0.00019242 0)
(0.101173 -0.000231847 0)
(0.101635 -0.000269368 0)
(0.102155 -0.000305331 0)
(0.102726 -0.000340012 0)
(0.103346 -0.000373621 0)
(0.104009 -0.00040632 0)
(0.104714 -0.000438238 0)
(0.105455 -0.000469479 0)
(0.106232 -0.000500129 0)
(0.10704 -0.000530253 0)
(0.107879 -0.000559909 0)
(0.108745 -0.000589139 0)
(0.109637 -0.00061798 0)
(0.110553 -0.000646457 0)
(0.111491 -0.000674591 0)
(0.112449 -0.000702395 0)
(0.113426 -0.000729878 0)
(0.11442 -0.000757044 0)
(0.115429 -0.000783891 0)
(0.116453 -0.000810414 0)
(0.11749 -0.000836605 0)
(0.118538 -0.000862452 0)
(0.119597 -0.000887938 0)
(0.120665 -0.000913043 0)
(0.12174 -0.000937745 0)
(0.122822 -0.000962019 0)
(0.12391 -0.000985833 0)
(0.125002 -0.00100916 0)
(0.126097 -0.00103195 0)
(0.127194 -0.00105417 0)
(0.128292 -0.00107578 0)
(0.12939 -0.00109671 0)
(0.130487 -0.00111693 0)
(0.131582 -0.00113636 0)
(0.132673 -0.00115494 0)
(0.133759 -0.0011726 0)
(0.13484 -0.00118924 0)
(0.135915 -0.00120478 0)
(0.136981 -0.00121911 0)
(0.138038 -0.00123212 0)
(0.139086 -0.00124369 0)
(0.140121 -0.00125366 0)
(0.141144 -0.00126187 0)
(0.142153 -0.00126814 0)
(0.143147 -0.00127225 0)
(0.144124 -0.00127398 0)
(0.145082 -0.00127305 0)
(0.14602 -0.00126913 0)
(0.146937 -0.00126187 0)
(0.14783 -0.00125085 0)
(0.148697 -0.00123556 0)
(0.149537 -0.00121544 0)
(0.150346 -0.00118978 0)
(0.151122 -0.00115778 0)
(0.151861 -0.00111845 0)
(0.152561 -0.0010706 0)
(0.153217 -0.0010128 0)
(0.153825 -0.000943265 0)
(0.15438 -0.000859805 0)
(0.154875 -0.000759663 0)
(0.155304 -0.00063935 0)
(0.155657 -0.000494395 0)
(0.155926 -0.000318996 0)
(0.156098 -0.000105522 0)
(0.156158 0.000156199 0)
(0.156089 0.000480071 0)
(0.155868 0.000885416 0)
(0.15547 0.00139949 0)
(0.154862 0.00206143 0)
(0.154005 0.0029284 0)
(0.152856 0.00408499 0)
(0.15137 0.00565722 0)
(0.149514 0.00783098 0)
(0.147294 0.0108712 0)
(0.144823 0.015126 0)
(0.142534 0.0209005 0)
(0.141702 0.0276782 0)
(0.10003 -7.9827e-05 0)
(0.100183 -0.000151533 0)
(0.100434 -0.000217174 0)
(0.10076 -0.000277852 0)
(0.101157 -0.000334963 0)
(0.101616 -0.000389298 0)
(0.102133 -0.000441366 0)
(0.102701 -0.00049157 0)
(0.103317 -0.000540216 0)
(0.103978 -0.000587538 0)
(0.104678 -0.000633725 0)
(0.105417 -0.000678929 0)
(0.106189 -0.000723271 0)
(0.106994 -0.00076685 0)
(0.107829 -0.000809746 0)
(0.108692 -0.000852024 0)
(0.10958 -0.000893733 0)
(0.110491 -0.000934913 0)
(0.111425 -0.000975592 0)
(0.112379 -0.00101579 0)
(0.113351 -0.00105552 0)
(0.114341 -0.00109479 0)
(0.115345 -0.00113359 0)
(0.116365 -0.00117192 0)
(0.117396 -0.00120976 0)
(0.11844 -0.0012471 0)
(0.119493 -0.00128392 0)
(0.120556 -0.00132018 0)
(0.121626 -0.00135585 0)
(0.122702 -0.00139089 0)
(0.123784 -0.00142527 0)
(0.12487 -0.00145893 0)
(0.125959 -0.00149182 0)
(0.12705 -0.00152388 0)
(0.128142 -0.00155504 0)
(0.129234 -0.00158523 0)
(0.130324 -0.00161438 0)
(0.131412 -0.00164238 0)
(0.132496 -0.00166914 0)
(0.133576 -0.00169456 0)
(0.13465 -0.00171852 0)
(0.135717 -0.00174088 0)
(0.136776 -0.00176149 0)
(0.137826 -0.00178018 0)
(0.138865 -0.00179679 0)
(0.139894 -0.00181108 0)
(0.140909 -0.00182284 0)
(0.14191 -0.0018318 0)
(0.142896 -0.00183765 0)
(0.143865 -0.00184007 0)
(0.144816 -0.00183865 0)
(0.145747 -0.00183295 0)
(0.146656 -0.00182246 0)
(0.147542 -0.00180657 0)
(0.148403 -0.00178458 0)
(0.149236 -0.00175568 0)
(0.150039 -0.00171891 0)
(0.150809 -0.00167311 0)
(0.151545 -0.00161691 0)
(0.152241 -0.00154869 0)
(0.152896 -0.00146643 0)
(0.153504 -0.0013677 0)
(0.154062 -0.00124952 0)
(0.154564 -0.00110815 0)
(0.155003 -0.00093892 0)
(0.155373 -0.000735904 0)
(0.155666 -0.000491515 0)
(0.155873 -0.000195934 0)
(0.155982 0.000163639 0)
(0.155981 0.000604168 0)
(0.155857 0.00114854 0)
(0.155595 0.00182782 0)
(0.15518 0.00268444 0)
(0.154602 0.00377668 0)
(0.153854 0.00518433 0)
(0.152951 0.00701487 0)
(0.151942 0.00940688 0)
(0.15094 0.0125214 0)
(0.150168 0.0164975 0)
(0.150014 0.0212998 0)
(0.15104 0.0262797 0)
(0.100027 -0.000104314 0)
(0.100177 -0.000200177 0)
(0.100423 -0.000287496 0)
(0.100746 -0.0003683 0)
(0.101138 -0.000444329 0)
(0.101593 -0.000516634 0)
(0.102105 -0.000585908 0)
(0.102669 -0.000652688 0)
(0.103281 -0.000717383 0)
(0.103936 -0.000780309 0)
(0.104632 -0.000841716 0)
(0.105366 -0.000901806 0)
(0.106134 -0.000960742 0)
(0.106933 -0.00101866 0)
(0.107763 -0.00107566 0)
(0.10862 -0.00113183 0)
(0.109503 -0.00118724 0)
(0.110409 -0.00124193 0)
(0.111337 -0.00129596 0)
(0.112285 -0.00134933 0)
(0.113251 -0.00140208 0)
(0.114234 -0.00145421 0)
(0.115233 -0.00150571 0)
(0.116245 -0.00155657 0)
(0.11727 -0.00160678 0)
(0.118307 -0.00165632 0)
(0.119353 -0.00170514 0)
(0.120408 -0.00175322 0)
(0.121471 -0.00180052 0)
(0.12254 -0.00184697 0)
(0.123614 -0.00189252 0)
(0.124692 -0.00193711 0)
(0.125773 -0.00198067 0)
(0.126856 -0.00202312 0)
(0.127939 -0.00206437 0)
(0.129022 -0.00210431 0)
(0.130104 -0.00214286 0)
(0.131182 -0.00217988 0)
(0.132257 -0.00221525 0)
(0.133328 -0.00224883 0)
(0.134392 -0.00228045 0)
(0.13545 -0.00230994 0)
(0.136499 -0.00233711 0)
(0.137539 -0.00236174 0)
(0.138569 -0.00238359 0)
(0.139587 -0.00240237 0)
(0.140592 -0.00241779 0)
(0.141584 -0.00242951 0)
(0.14256 -0.00243713 0)
(0.143519 -0.0024402 0)
(0.14446 -0.00243822 0)
(0.145381 -0.00243061 0)
(0.146281 -0.0024167 0)
(0.147157 -0.00239573 0)
(0.148009 -0.00236678 0)
(0.148834 -0.00232881 0)
(0.14963 -0.0022806 0)
(0.150394 -0.00222069 0)
(0.151125 -0.00214735 0)
(0.151819 -0.00205853 0)
(0.152472 -0.00195174 0)
(0.153082 -0.00182398 0)
(0.153645 -0.00167158 0)
(0.154157 -0.00149004 0)
(0.154612 -0.00127377 0)
(0.155005 -0.00101583 0)
(0.155331 -0.000707438 0)
(0.155584 -0.000337509 0)
(0.155756 0.000108058 0)
(0.155843 0.000647129 0)
(0.155837 0.001303 0)
(0.155736 0.00210577 0)
(0.155541 0.0030942 0)
(0.15526 0.00431767 0)
(0.154915 0.00583776 0)
(0.154551 0.00772783 0)
(0.154246 0.0100673 0)
(0.15413 0.0129232 0)
(0.154397 0.0163045 0)
(0.155299 0.0200649 0)
(0.15706 0.0237321 0)
(0.100024 -0.000129521 0)
(0.100171 -0.000251081 0)
(0.100411 -0.000361467 0)
(0.100729 -0.00046376 0)
(0.101115 -0.000559998 0)
(0.101565 -0.000651493 0)
(0.102071 -0.000739132 0)
(0.10263 -0.000823597 0)
(0.103236 -0.000905407 0)
(0.103885 -0.000984963 0)
(0.104575 -0.00106258 0)
(0.105303 -0.00113853 0)
(0.106064 -0.001213 0)
(0.106858 -0.00128617 0)
(0.107681 -0.00135817 0)
(0.108531 -0.00142911 0)
(0.109406 -0.00149908 0)
(0.110305 -0.00156813 0)
(0.111226 -0.00163633 0)
(0.112166 -0.00170369 0)
(0.113125 -0.00177025 0)
(0.1141 -0.00183601 0)
(0.11509 -0.00190097 0)
(0.116094 -0.00196511 0)
(0.117111 -0.00202841 0)
(0.118138 -0.00209085 0)
(0.119176 -0.00215238 0)
(0.120222 -0.00221296 0)
(0.121275 -0.00227252 0)
(0.122334 -0.00233101 0)
(0.123399 -0.00238836 0)
(0.124467 -0.00244447 0)
(0.125537 -0.00249926 0)
(0.12661 -0.00255264 0)
(0.127682 -0.00260449 0)
(0.128754 -0.00265468 0)
(0.129825 -0.00270309 0)
(0.130892 -0.00274956 0)
(0.131956 -0.00279393 0)
(0.133015 -0.00283603 0)
(0.134067 -0.00287566 0)
(0.135113 -0.00291259 0)
(0.13615 -0.00294658 0)
(0.137178 -0.00297736 0)
(0.138196 -0.00300462 0)
(0.139201 -0.00302804 0)
(0.140194 -0.00304723 0)
(0.141173 -0.00306177 0)
(0.142137 -0.00307116 0)
(0.143084 -0.00307487 0)
(0.144013 -0.00307228 0)
(0.144922 -0.00306267 0)
(0.145811 -0.00304524 0)
(0.146677 -0.00301904 0)
(0.147519 -0.002983 0)
(0.148335 -0.00293585 0)
(0.149123 -0.00287613 0)
(0.14988 -0.00280212 0)
(0.150606 -0.00271178 0)
(0.151297 -0.0026027 0)
(0.15195 -0.00247203 0)
(0.152564 -0.00231631 0)
(0.153135 -0.00213142 0)
(0.15366 -0.00191233 0)
(0.154135 -0.00165294 0)
(0.154558 -0.00134578 0)
(0.154926 -0.000981649 0)
(0.155235 -0.000549241 0)
(0.155483 -3.4603e-05 0)
(0.155669 0.000579161 0)
(0.155795 0.00131288 0)
(0.155866 0.00219211 0)
(0.155894 0.00324748 0)
(0.155899 0.00451471 0)
(0.155914 0.0060334 0)
(0.155994 0.00784358 0)
(0.156214 0.00997765 0)
(0.15668 0.0124444 0)
(0.157527 0.0152 0)
(0.15889 0.0181029 0)
(0.160848 0.0208607 0)
(0.100021 -0.000155465 0)
(0.100164 -0.000304182 0)
(0.100399 -0.000439038 0)
(0.100711 -0.000564205 0)
(0.101091 -0.000681991 0)
(0.101534 -0.000793948 0)
(0.102034 -0.000901165 0)
(0.102585 -0.00100448 0)
(0.103184 -0.00110451 0)
(0.103826 -0.00120178 0)
(0.104509 -0.00129665 0)
(0.105228 -0.00138946 0)
(0.105982 -0.00148044 0)
(0.106768 -0.00156982 0)
(0.107582 -0.00165775 0)
(0.108424 -0.00174437 0)
(0.109291 -0.00182978 0)
(0.110181 -0.00191406 0)
(0.111093 -0.00199728 0)
(0.112024 -0.00207946 0)
(0.112972 -0.00216064 0)
(0.113938 -0.00224083 0)
(0.114918 -0.00232001 0)
(0.115912 -0.00239819 0)
(0.116918 -0.00247532 0)
(0.117935 -0.00255138 0)
(0.118962 -0.00262631 0)
(0.119996 -0.00270005 0)
(0.121038 -0.00277254 0)
(0.122086 -0.0028437 0)
(0.123138 -0.00291344 0)
(0.124194 -0.00298166 0)
(0.125252 -0.00304824 0)
(0.126312 -0.00311308 0)
(0.127372 -0.00317602 0)
(0.128431 -0.00323694 0)
(0.129488 -0.00329565 0)
(0.130542 -0.00335198 0)
(0.131592 -0.00340574 0)
(0.132636 -0.00345671 0)
(0.133675 -0.00350465 0)
(0.134706 -0.00354929 0)
(0.135729 -0.00359034 0)
(0.136743 -0.00362747 0)
(0.137746 -0.00366033 0)
(0.138737 -0.00368852 0)
(0.139716 -0.00371157 0)
(0.14068 -0.00372899 0)
(0.14163 -0.0037402 0)
(0.142563 -0.00374456 0)
(0.143478 -0.00374135 0)
(0.144374 -0.00372973 0)
(0.14525 -0.00370876 0)
(0.146104 -0.00367736 0)
(0.146935 -0.00363428 0)
(0.14774 -0.00357809 0)
(0.14852 -0.00350711 0)
(0.149271 -0.00341942 0)
(0.149991 -0.00331275 0)
(0.15068 -0.00318445 0)
(0.151336 -0.00303139 0)
(0.151955 -0.00284989 0)
(0.152537 -0.00263557 0)
(0.153079 -0.00238323 0)
(0.15358 -0.00208665 0)
(0.154038 -0.00173843 0)
(0.154453 -0.00132973 0)
(0.154825 -0.000849991 0)
(0.155155 -0.000286711 0)
(0.155447 0.000374733 0)
(0.155707 0.00115074 0)
(0.155946 0.00206044 0)
(0.156181 0.00312478 0)
(0.156437 0.00436554 0)
(0.156748 0.00580304 0)
(0.157163 0.00745229 0)
(0.157742 0.00931645 0)
(0.158559 0.0113768 0)
(0.159693 0.0135784 0)
(0.16121 0.0158141 0)
(0.163127 0.0179142 0)
(0.100018 -0.00018217 0)
(0.100158 -0.000359439 0)
(0.100387 -0.000520173 0)
(0.100691 -0.000669606 0)
(0.101064 -0.000810307 0)
(0.1015 -0.000944041 0)
(0.101992 -0.00107209 0)
(0.102535 -0.00119545 0)
(0.103125 -0.00131488 0)
(0.103759 -0.00143097 0)
(0.104433 -0.00154418 0)
(0.105143 -0.00165489 0)
(0.105888 -0.00176341 0)
(0.106664 -0.00186998 0)
(0.107469 -0.0019748 0)
(0.108301 -0.00207804 0)
(0.109157 -0.00217981 0)
(0.110037 -0.0022802 0)
(0.110937 -0.0023793 0)
(0.111857 -0.00247715 0)
(0.112795 -0.00257378 0)
(0.113749 -0.00266919 0)
(0.114717 -0.0027634 0)
(0.115699 -0.00285637 0)
(0.116693 -0.00294807 0)
(0.117697 -0.00303847 0)
(0.11871 -0.00312749 0)
(0.119732 -0.00321507 0)
(0.12076 -0.00330114 0)
(0.121794 -0.00338559 0)
(0.122832 -0.00346832 0)
(0.123874 -0.00354921 0)
(0.124918 -0.00362813 0)
(0.125962 -0.00370494 0)
(0.127007 -0.00377947 0)
(0.128051 -0.00385155 0)
(0.129092 -0.00392099 0)
(0.130131 -0.00398758 0)
(0.131165 -0.00405108 0)
(0.132193 -0.00411124 0)
(0.133216 -0.00416778 0)
(0.134231 -0.00422039 0)
(0.135237 -0.00426873 0)
(0.136234 -0.00431241 0)
(0.137221 -0.00435103 0)
(0.138196 -0.00438411 0)
(0.139158 -0.00441114 0)
(0.140106 -0.00443153 0)
(0.141039 -0.00444463 0)
(0.141956 -0.00444972 0)
(0.142856 -0.00444596 0)
(0.143738 -0.00443243 0)
(0.1446 -0.00440807 0)
(0.145441 -0.00437167 0)
(0.146259 -0.00432186 0)
(0.147055 -0.00425707 0)
(0.147825 -0.0041755 0)
(0.14857 -0.00407506 0)
(0.149286 -0.00395336 0)
(0.149975 -0.00380762 0)
(0.150633 -0.00363463 0)
(0.15126 -0.00343065 0)
(0.151855 -0.00319131 0)
(0.152418 -0.00291158 0)
(0.152947 -0.00258557 0)
(0.153445 -0.00220648 0)
(0.153911 -0.00176645 0)
(0.154349 -0.00125649 0)
(0.154762 -0.000666407 0)
(0.155158 1.52011e-05 0)
(0.155545 0.000800069 0)
(0.155936 0.00170025 0)
(0.15635 0.00272778 0)
(0.15681 0.00389294 0)
(0.157346 0.00520215 0)
(0.157995 0.006655 0)
(0.1588 0.00824021 0)
(0.159806 0.0099306 0)
(0.161056 0.0116777 0)
(0.162576 0.013408 0)
(0.164363 0.0150254 0)
(0.100014 -0.000209678 0)
(0.100152 -0.000416829 0)
(0.100375 -0.000604843 0)
(0.100672 -0.000779933 0)
(0.101037 -0.000944932 0)
(0.101463 -0.00110178 0)
(0.101946 -0.00125196 0)
(0.10248 -0.00139662 0)
(0.103061 -0.00153663 0)
(0.103685 -0.0016727 0)
(0.104348 -0.00180536 0)
(0.105048 -0.00193505 0)
(0.105782 -0.00206215 0)
(0.106547 -0.00218693 0)
(0.107341 -0.00230964 0)
(0.108161 -0.00243044 0)
(0.109006 -0.0025495 0)
(0.109873 -0.00266693 0)
(0.110761 -0.0027828 0)
(0.111668 -0.00289717 0)
(0.112592 -0.00301008 0)
(0.113533 -0.00312154 0)
(0.114488 -0.00323155 0)
(0.115455 -0.00334008 0)
(0.116435 -0.0034471 0)
(0.117424 -0.00355255 0)
(0.118423 -0.00365636 0)
(0.119429 -0.00375845 0)
(0.120442 -0.00385873 0)
(0.12146 -0.00395708 0)
(0.122482 -0.00405339 0)
(0.123507 -0.00414751 0)
(0.124534 -0.00423929 0)
(0.125562 -0.00432857 0)
(0.12659 -0.00441516 0)
(0.127616 -0.00449884 0)
(0.12864 -0.00457942 0)
(0.12966 -0.00465663 0)
(0.130676 -0.00473021 0)
(0.131687 -0.00479987 0)
(0.132691 -0.00486529 0)
(0.133687 -0.00492611 0)
(0.134675 -0.00498195 0)
(0.135654 -0.00503237 0)
(0.136622 -0.00507691 0)
(0.137578 -0.00511504 0)
(0.138522 -0.00514618 0)
(0.139452 -0.00516967 0)
(0.140368 -0.00518481 0)
(0.141268 -0.00519078 0)
(0.142151 -0.00518667 0)
(0.143017 -0.00517148 0)
(0.143864 -0.00514406 0)
(0.144691 -0.00510312 0)
(0.145497 -0.0050472 0)
(0.146282 -0.00497465 0)
(0.147044 -0.0048836 0)
(0.147782 -0.00477191 0)
(0.148495 -0.00463716 0)
(0.149184 -0.00447658 0)
(0.149846 -0.00428704 0)
(0.150483 -0.00406494 0)
(0.151093 -0.00380623 0)
(0.151678 -0.0035063 0)
(0.152239 -0.00315997 0)
(0.152777 -0.00276145 0)
(0.153295 -0.00230434 0)
(0.153797 -0.00178167 0)
(0.154289 -0.001186 0)
(0.15478 -0.000509544 0)
(0.155279 0.000255617 0)
(0.155799 0.00111514 0)
(0.156356 0.00207389 0)
(0.15697 0.00313416 0)
(0.157664 0.00429394 0)
(0.158465 0.00554515 0)
(0.159398 0.00687165 0)
(0.16049 0.00824731 0)
(0.16176 0.00963483 0)
(0.163216 0.0109863 0)
(0.164849 0.0122473 0)
(0.100011 -0.000238033 0)
(0.100146 -0.000476341 0)
(0.100362 -0.000693029 0)
(0.100651 -0.000895156 0)
(0.101008 -0.00108584 0)
(0.101425 -0.00126716 0)
(0.101898 -0.00144079 0)
(0.102421 -0.00160801 0)
(0.102992 -0.00176983 0)
(0.103604 -0.00192706 0)
(0.104256 -0.00208031 0)
(0.104944 -0.0022301 0)
(0.105666 -0.00237685 0)
(0.106418 -0.00252088 0)
(0.107199 -0.00266247 0)
(0.108006 -0.00280183 0)
(0.108837 -0.00293913 0)
(0.10969 -0.00307451 0)
(0.110564 -0.00320804 0)
(0.111456 -0.00333981 0)
(0.112366 -0.00346985 0)
(0.113291 -0.00359818 0)
(0.11423 -0.00372478 0)
(0.115182 -0.00384964 0)
(0.116145 -0.00397271 0)
(0.117118 -0.00409393 0)
(0.118099 -0.00421321 0)
(0.119088 -0.00433047 0)
(0.120083 -0.00444559 0)
(0.121084 -0.00455844 0)
(0.122088 -0.00466889 0)
(0.123094 -0.00477678 0)
(0.124103 -0.00488194 0)
(0.125112 -0.00498416 0)
(0.12612 -0.00508324 0)
(0.127127 -0.00517895 0)
(0.128131 -0.00527103 0)
(0.129131 -0.00535922 0)
(0.130127 -0.0054432 0)
(0.131118 -0.00552265 0)
(0.132101 -0.00559721 0)
(0.133078 -0.00566649 0)
(0.134045 -0.00573004 0)
(0.135003 -0.00578741 0)
(0.135951 -0.00583806 0)
(0.136887 -0.00588142 0)
(0.137811 -0.00591685 0)
(0.138722 -0.00594366 0)
(0.139619 -0.00596106 0)
(0.1405 -0.00596818 0)
(0.141366 -0.00596408 0)
(0.142215 -0.00594767 0)
(0.143046 -0.00591777 0)
(0.143859 -0.00587303 0)
(0.144652 -0.00581197 0)
(0.145426 -0.00573292 0)
(0.146179 -0.00563401 0)
(0.146911 -0.00551315 0)
(0.147622 -0.005368 0)
(0.148311 -0.00519595 0)
(0.148979 -0.00499408 0)
(0.149626 -0.00475916 0)
(0.150253 -0.00448762 0)
(0.150861 -0.00417557 0)
(0.151453 -0.00381877 0)
(0.15203 -0.00341268 0)
(0.152596 -0.00295257 0)
(0.153158 -0.00243362 0)
(0.15372 -0.00185108 0)
(0.154292 -0.00120056 0)
(0.154882 -0.00047824 0)
(0.155503 0.000319036 0)
(0.156167 0.00119013 0)
(0.15689 0.00213226 0)
(0.157686 0.00313937 0)
(0.158574 0.00420088 0)
(0.159568 0.00530088 0)
(0.160681 0.00641788 0)
(0.161921 0.00752508 0)
(0.163287 0.00859189 0)
(0.16477 0.00958732 0)
(0.100007 -0.000267274 0)
(0.100139 -0.000537971 0)
(0.10035 -0.000784711 0)
(0.100631 -0.00101525 0)
(0.100978 -0.00123299 0)
(0.101385 -0.00144015 0)
(0.101847 -0.00163854 0)
(0.102359 -0.00182961 0)
(0.102918 -0.00201449 0)
(0.103518 -0.00219408 0)
(0.104157 -0.00236909 0)
(0.104832 -0.00254011 0)
(0.105539 -0.00270759 0)
(0.106278 -0.00287193 0)
(0.107044 -0.00303343 0)
(0.107836 -0.00319234 0)
(0.108652 -0.00334884 0)
(0.109489 -0.0035031 0)
(0.110347 -0.0036552 0)
(0.111223 -0.00380524 0)
(0.112116 -0.00395326 0)
(0.113024 -0.00409926 0)
(0.113945 -0.00424326 0)
(0.114879 -0.0043852 0)
(0.115824 -0.00452505 0)
(0.116778 -0.00466273 0)
(0.117741 -0.00479816 0)
(0.118711 -0.00493122 0)
(0.119686 -0.0050618 0)
(0.120667 -0.00518974 0)
(0.12165 -0.00531488 0)
(0.122637 -0.00543706 0)
(0.123624 -0.00555607 0)
(0.124612 -0.00567169 0)
(0.125599 -0.00578369 0)
(0.126584 -0.00589181 0)
(0.127567 -0.00599577 0)
(0.128545 -0.00609527 0)
(0.129519 -0.00618996 0)
(0.130487 -0.00627948 0)
(0.131449 -0.00636344 0)
(0.132403 -0.00644141 0)
(0.133348 -0.00651292 0)
(0.134284 -0.00657744 0)
(0.13521 -0.00663443 0)
(0.136125 -0.00668325 0)
(0.137028 -0.00672324 0)
(0.137918 -0.00675365 0)
(0.138794 -0.00677366 0)
(0.139656 -0.00678237 0)
(0.140503 -0.0067788 0)
(0.141334 -0.00676185 0)
(0.142149 -0.00673031 0)
(0.142947 -0.00668285 0)
(0.143727 -0.006618 0)
(0.14449 -0.00653415 0)
(0.145235 -0.00642951 0)
(0.145961 -0.00630212 0)
(0.14667 -0.00614983 0)
(0.147361 -0.00597031 0)
(0.148034 -0.005761 0)
(0.148692 -0.00551918 0)
(0.149334 -0.00524193 0)
(0.149964 -0.00492618 0)
(0.150584 -0.00456876 0)
(0.151197 -0.00416649 0)
(0.151807 -0.00371625 0)
(0.152419 -0.00321522 0)
(0.153039 -0.00266097 0)
(0.153675 -0.00205179 0)
(0.154334 -0.00138693 0)
(0.155027 -0.000666768 0)
(0.155764 0.000107391 0)
(0.156555 0.000930015 0)
(0.157409 0.00179232 0)
(0.158337 0.0026841 0)
(0.159347 0.00359196 0)
(0.160443 0.00449969 0)
(0.161628 0.00538879 0)
(0.162899 0.00623987 0)
(0.164245 0.00703494 0)
(0.100003 -0.000297438 0)
(0.100133 -0.000601716 0)
(0.100338 -0.000879866 0)
(0.10061 -0.00114016 0)
(0.100947 -0.00138632 0)
(0.101344 -0.00162067 0)
(0.101794 -0.00184516 0)
(0.102294 -0.00206136 0)
(0.102839 -0.00227055 0)
(0.103426 -0.00247372 0)
(0.104051 -0.00267167 0)
(0.104711 -0.00286504 0)
(0.105404 -0.00305437 0)
(0.106126 -0.00324008 0)
(0.106876 -0.00342252 0)
(0.107652 -0.00360197 0)
(0.108451 -0.00377864 0)
(0.109271 -0.00395271 0)
(0.110111 -0.00412429 0)
(0.110969 -0.00429347 0)
(0.111843 -0.0044603 0)
(0.112732 -0.00462479 0)
(0.113634 -0.00478695 0)
(0.114548 -0.00494673 0)
(0.115473 -0.00510408 0)
(0.116407 -0.00525892 0)
(0.117349 -0.00541114 0)
(0.118297 -0.00556063 0)
(0.119251 -0.00570725 0)
(0.120209 -0.00585083 0)
(0.121171 -0.0059912 0)
(0.122135 -0.00612816 0)
(0.123099 -0.00626148 0)
(0.124064 -0.00639094 0)
(0.125028 -0.00651626 0)
(0.12599 -0.00663717 0)
(0.126949 -0.00675335 0)
(0.127903 -0.00686447 0)
(0.128853 -0.00697016 0)
(0.129798 -0.00707003 0)
(0.130735 -0.00716366 0)
(0.131665 -0.00725058 0)
(0.132587 -0.00733029 0)
(0.133499 -0.00740223 0)
(0.134402 -0.00746582 0)
(0.135293 -0.00752042 0)
(0.136173 -0.00756531 0)
(0.137041 -0.00759973 0)
(0.137896 -0.00762285 0)
(0.138738 -0.00763376 0)
(0.139565 -0.00763146 0)
(0.140378 -0.00761489 0)
(0.141176 -0.00758285 0)
(0.141959 -0.00753407 0)
(0.142726 -0.00746716 0)
(0.143478 -0.00738062 0)
(0.144214 -0.00727282 0)
(0.144935 -0.00714202 0)
(0.14564 -0.00698636 0)
(0.146332 -0.00680384 0)
(0.147011 -0.00659241 0)
(0.147678 -0.0063499 0)
(0.148334 -0.00607411 0)
(0.148984 -0.00576288 0)
(0.149628 -0.00541408 0)
(0.15027 -0.00502578 0)
(0.150915 -0.00459632 0)
(0.151568 -0.00412448 0)
(0.152232 -0.00360964 0)
(0.152915 -0.00305197 0)
(0.153622 -0.00245264 0)
(0.154361 -0.00181399 0)
(0.155139 -0.00113961 0)
(0.155964 -0.000434056 0)
(0.156842 0.00029645 0)
(0.157777 0.00104182 0)
(0.158773 0.00179007 0)
(0.159832 0.00252959 0)
(0.160951 0.00324802 0)
(0.162127 0.00393321 0)
(0.163352 0.00457473 0)
(0.0999994 -0.000328549 0)
(0.100127 -0.000667567 0)
(0.100325 -0.000978451 0)
(0.100589 -0.00126984 0)
(0.100916 -0.00154576 0)
(0.101301 -0.00180864 0)
(0.101739 -0.00206053 0)
(0.102226 -0.00230316 0)
(0.102757 -0.00253791 0)
(0.103329 -0.00276586 0)
(0.103939 -0.00298791 0)
(0.104583 -0.00320478 0)
(0.105259 -0.00341705 0)
(0.105965 -0.00362519 0)
(0.106697 -0.0038296 0)
(0.107455 -0.00403059 0)
(0.108235 -0.00422839 0)
(0.109036 -0.00442319 0)
(0.109856 -0.00461514 0)
(0.110694 -0.00480432 0)
(0.111548 -0.00499079 0)
(0.112416 -0.00517457 0)
(0.113297 -0.00535565 0)
(0.11419 -0.005534 0)
(0.115092 -0.00570954 0)
(0.116004 -0.0058822 0)
(0.116923 -0.00605185 0)
(0.117848 -0.00621837 0)
(0.118778 -0.00638159 0)
(0.119713 -0.00654135 0)
(0.12065 -0.00669744 0)
(0.121589 -0.00684965 0)
(0.122529 -0.00699773 0)
(0.123469 -0.00714142 0)
(0.124408 -0.00728045 0)
(0.125344 -0.00741449 0)
(0.126277 -0.00754322 0)
(0.127207 -0.00766627 0)
(0.128131 -0.00778326 0)
(0.129049 -0.00789377 0)
(0.129961 -0.00799734 0)
(0.130866 -0.00809348 0)
(0.131762 -0.00818167 0)
(0.132649 -0.00826135 0)
(0.133527 -0.0083319 0)
(0.134394 -0.00839265 0)
(0.13525 -0.0084429 0)
(0.136095 -0.00848189 0)
(0.136928 -0.00850877 0)
(0.137748 -0.00852267 0)
(0.138555 -0.00852262 0)
(0.139349 -0.00850759 0)
(0.14013 -0.00847648 0)
(0.140897 -0.0084281 0)
(0.14165 -0.0083612 0)
(0.14239 -0.00827445 0)
(0.143117 -0.00816644 0)
(0.143832 -0.00803571 0)
(0.144534 -0.00788072 0)
(0.145226 -0.00769993 0)
(0.145908 -0.00749176 0)
(0.146582 -0.00725468 0)
(0.14725 -0.00698721 0)
(0.147914 -0.006688 0)
(0.148577 -0.00635588 0)
(0.149242 -0.00598998 0)
(0.149913 -0.00558979 0)
(0.150594 -0.00515529 0)
(0.151288 -0.00468706 0)
(0.152 -0.00418643 0)
(0.152736 -0.00365558 0)
(0.1535 -0.00309763 0)
(0.154296 -0.00251671 0)
(0.155129 -0.00191799 0)
(0.156003 -0.00130744 0)
(0.15692 -0.00069138 0)
(0.157883 -7.65355e-05 0)
(0.15889 0.000528213 0)
(0.159939 0.00111373 0)
(0.161025 0.00167085 0)
(0.162143 0.0021936 0)
(0.099995 -0.000360619 0)
(0.10012 -0.0007355 0)
(0.100313 -0.0010804 0)
(0.100567 -0.00140418 0)
(0.100884 -0.00171117 0)
(0.101257 -0.00200389 0)
(0.101683 -0.00228448 0)
(0.102155 -0.0025548 0)
(0.102671 -0.00281633 0)
(0.103228 -0.00307028 0)
(0.103821 -0.00331759 0)
(0.104448 -0.00355907 0)
(0.105106 -0.00379537 0)
(0.105793 -0.004027 0)
(0.106506 -0.00425439 0)
(0.107244 -0.00447789 0)
(0.108004 -0.00469777 0)
(0.108785 -0.00491422 0)
(0.109584 -0.0051274 0)
(0.1104 -0.00533742 0)
(0.111231 -0.00554434 0)
(0.112077 -0.00574817 0)
(0.112935 -0.00594892 0)
(0.113803 -0.00614653 0)
(0.114682 -0.00634094 0)
(0.115569 -0.00653204 0)
(0.116463 -0.00671973 0)
(0.117363 -0.00690383 0)
(0.118268 -0.0070842 0)
(0.119177 -0.00726063 0)
(0.120088 -0.00743291 0)
(0.121001 -0.0076008 0)
(0.121914 -0.00776405 0)
(0.122827 -0.00792236 0)
(0.123739 -0.00807544 0)
(0.124648 -0.00822296 0)
(0.125554 -0.00836455 0)
(0.126455 -0.00849984 0)
(0.127352 -0.00862842 0)
(0.128243 -0.00874985 0)
(0.129128 -0.00886366 0)
(0.130005 -0.00896934 0)
(0.130875 -0.00906636 0)
(0.131736 -0.00915414 0)
(0.132587 -0.00923207 0)
(0.133429 -0.00929948 0)
(0.13426 -0.00935568 0)
(0.135081 -0.00939991 0)
(0.13589 -0.0094314 0)
(0.136688 -0.00944927 0)
(0.137475 -0.00945265 0)
(0.138249 -0.00944059 0)
(0.139011 -0.00941209 0)
(0.139762 -0.00936612 0)
(0.140501 -0.00930158 0)
(0.141229 -0.00921736 0)
(0.141945 -0.00911231 0)
(0.142652 -0.00898529 0)
(0.14335 -0.00883515 0)
(0.14404 -0.00866076 0)
(0.144723 -0.00846106 0)
(0.1454 -0.0082351 0)
(0.146075 -0.00798204 0)
(0.146749 -0.00770127 0)
(0.147425 -0.00739238 0)
(0.148104 -0.00705531 0)
(0.148791 -0.00669037 0)
(0.149488 -0.00629834 0)
(0.150198 -0.00588052 0)
(0.150926 -0.0054388 0)
(0.151673 -0.00497572 0)
(0.152444 -0.00449449 0)
(0.15324 -0.00399899 0)
(0.154065 -0.00349373 0)
(0.154919 -0.0029838 0)
(0.155804 -0.00247472 0)
(0.156719 -0.00197216 0)
(0.157665 -0.00148169 0)
(0.158639 -0.00100822 0)
(0.159638 -0.000555563 0)
(0.160657 -0.000127917 0)
(0.0999903 -0.00039364 0)
(0.100113 -0.00080547 0)
(0.1003 -0.00118563 0)
(0.100546 -0.00154306 0)
(0.100851 -0.00188238 0)
(0.101212 -0.00220621 0)
(0.101624 -0.00251676 0)
(0.102081 -0.00281599 0)
(0.102582 -0.00310552 0)
(0.103121 -0.00338662 0)
(0.103696 -0.00366033 0)
(0.104305 -0.00392753 0)
(0.104944 -0.00418891 0)
(0.105611 -0.00444505 0)
(0.106304 -0.00469642 0)
(0.10702 -0.00494338 0)
(0.107758 -0.00518624 0)
(0.108516 -0.00542522 0)
(0.109293 -0.00566048 0)
(0.110085 -0.00589215 0)
(0.110893 -0.00612028 0)
(0.111714 -0.00634491 0)
(0.112546 -0.00656602 0)
(0.11339 -0.00678356 0)
(0.114242 -0.00699746 0)
(0.115103 -0.00720762 0)
(0.11597 -0.00741389 0)
(0.116843 -0.00761611 0)
(0.117721 -0.00781412 0)
(0.118602 -0.00800768 0)
(0.119485 -0.00819659 0)
(0.120369 -0.00838057 0)
(0.121254 -0.00855936 0)
(0.122138 -0.00873265 0)
(0.123021 -0.00890012 0)