/*--------------------------------*- C++ -*----------------------------------*\
| =========                 |                                                 |
| \\      /  F ield         | OpenFOAM: The Open Source CFD Toolbox           |
|  \\    /   O peration     | Version:  2112                                  |
|   \\  /    A nd           | Website:  www.openfoam.com                      |
|    \\/     M anipulation  |                                                 |
\*---------------------------------------------------------------------------*/
FoamFile
{
    version     2.0;
    format      ascii;
    arch        "LSB;label=32;scalar=64";
    class       surfaceScalarField;
    location    "3";
    object      phi;
}
// * * * * * * * * * * * * * * * * * * * * * * * * * * * * * * * * * * * * * //

dimensions      [1 0 -1 0 0 0 0];

oriented        oriented;

internalField   nonuniform List<scalar> 
23692
(
2.32871e-06
-1.72433e-09
2.33184e-06
-3.12099e-09
2.33619e-06
-4.35044e-09
2.34161e-06
-5.41676e-09
2.34797e-06
-6.35731e-09
2.35518e-06
-7.19556e-09
2.36313e-06
-7.94727e-09
2.37177e-06
-8.62514e-09
2.38102e-06
-9.23896e-09
2.39083e-06
-9.79658e-09
2.40114e-06
-1.03043e-08
2.41193e-06
-1.07671e-08
2.42313e-06
-1.1189e-08
2.43472e-06
-1.15734e-08
2.44666e-06
-1.19229e-08
2.45892e-06
-1.22396e-08
2.47146e-06
-1.25255e-08
2.48426e-06
-1.27822e-08
2.4973e-06
-1.30114e-08
2.51053e-06
-1.32145e-08
2.52395e-06
-1.33932e-08
2.53752e-06
-1.35491e-08
2.55123e-06
-1.3684e-08
2.56505e-06
-1.37995e-08
2.57897e-06
-1.38977e-08
2.59298e-06
-1.39802e-08
2.60705e-06
-1.40487e-08
2.62118e-06
-1.41049e-08
2.63536e-06
-1.41501e-08
2.64957e-06
-1.41854e-08
2.66381e-06
-1.4212e-08
2.67806e-06
-1.42302e-08
2.69233e-06
-1.42407e-08
2.7066e-06
-1.42434e-08
2.72086e-06
-1.42383e-08
2.73512e-06
-1.42249e-08
2.74934e-06
-1.42025e-08
2.76354e-06
-1.41703e-08
2.77769e-06
-1.41274e-08
2.79179e-06
-1.40724e-08
2.80582e-06
-1.40042e-08
2.81977e-06
-1.39212e-08
2.83362e-06
-1.38218e-08
2.84735e-06
-1.37045e-08
2.86094e-06
-1.35675e-08
2.87437e-06
-1.34087e-08
2.88762e-06
-1.32263e-08
2.90067e-06
-1.30179e-08
2.91347e-06
-1.27813e-08
2.92601e-06
-1.25138e-08
2.93825e-06
-1.22127e-08
2.95014e-06
-1.18745e-08
2.96166e-06
-1.14958e-08
2.97276e-06
-1.10724e-08
2.98338e-06
-1.05996e-08
2.99347e-06
-1.00718e-08
3.00298e-06
-9.48247e-09
3.01182e-06
-8.82395e-09
3.01993e-06
-8.08703e-09
3.02721e-06
-7.26061e-09
3.03356e-06
-6.33119e-09
3.03886e-06
-5.28219e-09
3.04298e-06
-4.09305e-09
3.04573e-06
-2.73799e-09
3.04694e-06
-1.18449e-09
3.04635e-06
6.09435e-10
3.04366e-06
2.69974e-09
3.03852e-06
5.16102e-09
3.03045e-06
8.09426e-09
3.01882e-06
1.1639e-08
3.00285e-06
1.59925e-08
2.98142e-06
2.14408e-08
2.95303e-06
2.84085e-08
2.91551e-06
3.75433e-08
2.86566e-06
4.98597e-08
2.79869e-06
6.69862e-08
2.70712e-06
9.15881e-08
2.57901e-06
1.28127e-07
2.39441e-06
1.84612e-07
2.11745e-06
2.7698e-07
4.49506e-07
1.66796e-06
2.49178e-06
-3.52634e-09
2.49511e-06
-6.4435e-09
2.49975e-06
-8.99237e-09
2.50554e-06
-1.11989e-08
2.51233e-06
-1.3146e-08
2.52003e-06
-1.48809e-08
2.52852e-06
-1.64366e-08
2.53775e-06
-1.78391e-08
2.54763e-06
-1.91091e-08
2.55811e-06
-2.02626e-08
2.56913e-06
-2.13127e-08
2.58065e-06
-2.22699e-08
2.59262e-06
-2.31424e-08
2.605e-06
-2.39371e-08
2.61776e-06
-2.46595e-08
2.63085e-06
-2.53141e-08
2.64425e-06
-2.59049e-08
2.65793e-06
-2.64352e-08
2.67185e-06
-2.69084e-08
2.68598e-06
-2.73277e-08
2.70031e-06
-2.76963e-08
2.7148e-06
-2.80178e-08
2.72944e-06
-2.82957e-08
2.7442e-06
-2.85336e-08
2.75906e-06
-2.87354e-08
2.77401e-06
-2.89048e-08
2.78904e-06
-2.90452e-08
2.80412e-06
-2.91599e-08
2.81925e-06
-2.92519e-08
2.83441e-06
-2.93236e-08
2.8496e-06
-2.93768e-08
2.86482e-06
-2.94131e-08
2.88004e-06
-2.94331e-08
2.89526e-06
-2.94371e-08
2.91047e-06
-2.94248e-08
2.92567e-06
-2.93953e-08
2.94084e-06
-2.93473e-08
2.95598e-06
-2.92791e-08
2.97107e-06
-2.91886e-08
2.9861e-06
-2.90732e-08
3.00105e-06
-2.89304e-08
3.01592e-06
-2.87571e-08
3.03067e-06
-2.855e-08
3.0453e-06
-2.83058e-08
3.05978e-06
-2.80208e-08
3.07409e-06
-2.7691e-08
3.0882e-06
-2.73124e-08
3.10209e-06
-2.68803e-08
3.11573e-06
-2.639e-08
3.12907e-06
-2.5836e-08
3.1421e-06
-2.52126e-08
3.15476e-06
-2.45131e-08
3.16702e-06
-2.37302e-08
3.17883e-06
-2.28553e-08
3.19013e-06
-2.18789e-08
3.20087e-06
-2.07897e-08
3.21099e-06
-1.95744e-08
3.2204e-06
-1.82175e-08
3.22904e-06
-1.67003e-08
3.2368e-06
-1.50004e-08
3.24358e-06
-1.30908e-08
3.24926e-06
-1.0938e-08
3.25369e-06
-8.50116e-09
3.2567e-06
-5.72888e-09
3.25809e-06
-2.55656e-09
3.25762e-06
1.09828e-09
3.255e-06
5.3442e-09
3.24985e-06
1.0325e-08
3.24173e-06
1.62332e-08
3.23006e-06
2.33308e-08
3.21409e-06
3.19819e-08
3.19285e-06
4.27014e-08
3.16504e-06
5.62324e-08
3.12893e-06
7.36664e-08
3.08218e-06
9.66313e-08
3.02161e-06
1.27576e-07
2.94306e-06
1.70154e-07
2.84152e-06
2.2968e-07
2.71254e-06
3.1361e-07
2.55941e-06
4.30129e-07
5.71489e-07
2.43744e-06
2.66626e-06
-5.39705e-09
2.66978e-06
-9.96559e-09
2.67472e-06
-1.39244e-08
2.68088e-06
-1.73534e-08
2.68811e-06
-2.03779e-08
2.69631e-06
-2.3072e-08
2.70537e-06
-2.5487e-08
2.71521e-06
-2.7664e-08
2.72575e-06
-2.96347e-08
2.73692e-06
-3.14244e-08
2.74868e-06
-3.30532e-08
2.76096e-06
-3.45375e-08
2.77373e-06
-3.58902e-08
2.78693e-06
-3.71219e-08
2.80054e-06
-3.82413e-08
2.8145e-06
-3.92552e-08
2.82878e-06
-4.01699e-08
2.84336e-06
-4.09906e-08
2.8582e-06
-4.17226e-08
2.87327e-06
-4.23706e-08
2.88854e-06
-4.294e-08
2.90398e-06
-4.3436e-08
2.91958e-06
-4.38641e-08
2.9353e-06
-4.42302e-08
2.95113e-06
-4.454e-08
2.96706e-06
-4.47993e-08
2.98305e-06
-4.50136e-08
2.99911e-06
-4.51879e-08
3.01521e-06
-4.53267e-08
3.03135e-06
-4.54339e-08
3.04752e-06
-4.55125e-08
3.0637e-06
-4.55645e-08
3.07989e-06
-4.55912e-08
3.09607e-06
-4.55931e-08
3.11225e-06
-4.55695e-08
3.1284e-06
-4.55193e-08
3.14453e-06
-4.54403e-08
3.16061e-06
-4.533e-08
3.17663e-06
-4.5185e-08
3.19259e-06
-4.50015e-08
3.20847e-06
-4.47754e-08
3.22424e-06
-4.45021e-08
3.2399e-06
-4.41766e-08
3.25541e-06
-4.37936e-08
3.27077e-06
-4.33474e-08
3.28594e-06
-4.2832e-08
3.3009e-06
-4.2241e-08
3.31561e-06
-4.15676e-08
3.33005e-06
-4.08041e-08
3.34419e-06
-3.99427e-08
3.35798e-06
-3.89741e-08
3.37138e-06
-3.78884e-08
3.38435e-06
-3.66744e-08
3.39684e-06
-3.53193e-08
3.40879e-06
-3.38083e-08
3.42015e-06
-3.21245e-08
3.43085e-06
-3.02481e-08
3.44081e-06
-2.81555e-08
3.44996e-06
-2.58189e-08
3.45818e-06
-2.32051e-08
3.46539e-06
-2.02737e-08
3.47145e-06
-1.69756e-08
3.47622e-06
-1.32506e-08
3.47954e-06
-9.02393e-09
3.48121e-06
-4.20204e-09
3.48099e-06
1.33303e-09
3.47862e-06
7.73369e-09
3.47377e-06
1.51992e-08
3.46603e-06
2.39917e-08
3.45492e-06
3.44604e-08
3.43985e-06
4.70765e-08
3.42008e-06
6.24843e-08
3.39476e-06
8.15733e-08
3.36287e-06
1.0558e-07
3.32329e-06
1.36223e-07
3.27503e-06
1.75857e-07
3.21763e-06
2.27572e-07
3.15229e-06
2.95039e-07
3.08438e-06
3.81536e-07
3.02858e-06
4.85951e-07
5.89838e-07
3.01025e-06
2.85294e-06
-7.33373e-09
2.85666e-06
-1.36803e-08
2.86189e-06
-1.91455e-08
2.86842e-06
-2.38847e-08
2.87612e-06
-2.80625e-08
2.88483e-06
-3.17823e-08
2.89447e-06
-3.51158e-08
2.90494e-06
-3.81197e-08
2.91616e-06
-4.08382e-08
2.92805e-06
-4.33062e-08
2.94057e-06
-4.55516e-08
2.95365e-06
-4.7597e-08
2.96724e-06
-4.94605e-08
2.98129e-06
-5.11567e-08
2.99577e-06
-5.26973e-08
3.01063e-06
-5.40923e-08
3.02583e-06
-5.53499e-08
3.04134e-06
-5.64776e-08
3.05713e-06
-5.74825e-08
3.07316e-06
-5.83715e-08
3.08939e-06
-5.91515e-08
3.10582e-06
-5.983e-08
3.12239e-06
-6.04147e-08
3.13911e-06
-6.09134e-08
3.15593e-06
-6.13343e-08
3.17285e-06
-6.16852e-08
3.18984e-06
-6.19736e-08
3.20689e-06
-6.22067e-08
3.22398e-06
-6.23906e-08
3.24111e-06
-6.25307e-08
3.25826e-06
-6.26309e-08
3.27542e-06
-6.26945e-08
3.29259e-06
-6.27229e-08
3.30974e-06
-6.27169e-08
3.32688e-06
-6.26757e-08
3.34399e-06
-6.25976e-08
3.36106e-06
-6.24799e-08
3.37809e-06
-6.23188e-08
3.39504e-06
-6.21099e-08
3.41192e-06
-6.18481e-08
3.42871e-06
-6.15276e-08
3.44538e-06
-6.11421e-08
3.46192e-06
-6.06848e-08
3.4783e-06
-6.01485e-08
3.49451e-06
-5.95254e-08
3.51052e-06
-5.88075e-08
3.52629e-06
-5.79859e-08
3.54181e-06
-5.70513e-08
3.55703e-06
-5.59937e-08
3.57191e-06
-5.48019e-08
3.58643e-06
-5.34639e-08
3.60054e-06
-5.19664e-08
3.61419e-06
-5.02941e-08
3.62732e-06
-4.843e-08
3.6399e-06
-4.63547e-08
3.65185e-06
-4.40455e-08
3.6631e-06
-4.14763e-08
3.67359e-06
-3.86162e-08
3.68322e-06
-3.5429e-08
3.69191e-06
-3.18713e-08
3.69956e-06
-2.78911e-08
3.70603e-06
-2.34257e-08
3.7112e-06
-1.83982e-08
3.71492e-06
-1.27148e-08
3.717e-06
-6.25892e-09
3.71724e-06
1.11363e-09
3.71541e-06
9.5855e-09
3.71124e-06
1.93896e-08
3.70443e-06
3.08265e-08
3.69463e-06
4.4284e-08
3.68146e-06
6.02664e-08
3.66453e-06
7.94321e-08
3.64348e-06
1.0264e-07
3.61808e-06
1.31005e-07
3.58838e-06
1.65939e-07
3.5551e-06
2.09162e-07
3.52013e-06
2.62563e-07
3.48746e-06
3.27729e-07
3.46431e-06
4.04704e-07
3.46122e-06
4.89061e-07
5.66238e-07
3.48483e-06
3.0527e-06
-9.33525e-09
3.05661e-06
-1.75825e-08
3.06212e-06
-2.4654e-08
3.06904e-06
-3.07949e-08
3.07719e-06
-3.62066e-08
3.08644e-06
-4.10228e-08
3.09667e-06
-4.53372e-08
3.10779e-06
-4.92235e-08
3.1197e-06
-5.27392e-08
3.13234e-06
-5.59296e-08
3.14564e-06
-5.88311e-08
3.15953e-06
-6.14729e-08
3.17397e-06
-6.38786e-08
3.1889e-06
-6.60672e-08
3.20428e-06
-6.80539e-08
3.22007e-06
-6.98515e-08
3.23621e-06
-7.1471e-08
3.25268e-06
-7.29219e-08
3.26944e-06
-7.42135e-08
3.28645e-06
-7.53545e-08
3.30368e-06
-7.63543e-08
3.32111e-06
-7.72223e-08
3.33869e-06
-7.79684e-08
3.35641e-06
-7.8603e-08
3.37425e-06
-7.91363e-08
3.39217e-06
-7.95787e-08
3.41017e-06
-7.99399e-08
3.42823e-06
-8.0229e-08
3.44632e-06
-8.04541e-08
3.46445e-06
-8.0622e-08
3.48259e-06
-8.07382e-08
3.50074e-06
-8.08064e-08
3.51888e-06
-8.08291e-08
3.537e-06
-8.08069e-08
3.5551e-06
-8.07391e-08
3.57316e-06
-8.06234e-08
3.59117e-06
-8.04563e-08
3.60912e-06
-8.02332e-08
3.62699e-06
-7.99483e-08
3.64477e-06
-7.95951e-08
3.66245e-06
-7.91663e-08
3.67999e-06
-7.86537e-08
3.69739e-06
-7.80487e-08
3.71462e-06
-7.73422e-08
3.73165e-06
-7.65242e-08
3.74846e-06
-7.55845e-08
3.76502e-06
-7.45119e-08
3.78129e-06
-7.32947e-08
3.79725e-06
-7.192e-08
3.81285e-06
-7.03742e-08
3.82806e-06
-6.86421e-08
3.84283e-06
-6.67069e-08
3.85712e-06
-6.45499e-08
3.87087e-06
-6.21501e-08
3.88403e-06
-5.94834e-08
3.89653e-06
-5.65223e-08
3.90832e-06
-5.3235e-08
3.91931e-06
-4.95842e-08
3.92944e-06
-4.55265e-08
3.9386e-06
-4.10102e-08
3.94671e-06
-3.59741e-08
3.95366e-06
-3.03448e-08
3.95932e-06
-2.40339e-08
3.96357e-06
-1.69342e-08
3.96625e-06
-8.91546e-09
3.9672e-06
1.8079e-10
3.96626e-06
1.05504e-08
3.96324e-06
2.2433e-08
3.95796e-06
3.61321e-08
3.95025e-06
5.20237e-08
3.93996e-06
7.05739e-08
3.92706e-06
9.23577e-08
3.91164e-06
1.18075e-07
3.89412e-06
1.48555e-07
3.87534e-06
1.84737e-07
3.85694e-06
2.27582e-07
3.84166e-06
2.77862e-07
3.83371e-06
3.35699e-07
3.83876e-06
3.99676e-07
3.8625e-06
4.65337e-07
5.23271e-07
3.90549e-06
3.26645e-06
-1.14024e-08
3.27053e-06
-2.1668e-08
3.27633e-06
-3.04479e-08
3.28363e-06
-3.80849e-08
3.29225e-06
-4.48147e-08
3.30203e-06
-5.08015e-08
3.31287e-06
-5.61626e-08
3.32465e-06
-6.09896e-08
3.33728e-06
-6.53542e-08
3.35068e-06
-6.93132e-08
3.36478e-06
-7.29118e-08
3.37952e-06
-7.61864e-08
3.39483e-06
-7.91666e-08
3.41066e-06
-8.18759e-08
3.42696e-06
-8.43336e-08
3.44369e-06
-8.65556e-08
3.4608e-06
-8.85555e-08
3.47825e-06
-9.03453e-08
3.49601e-06
-9.19365e-08
3.51402e-06
-9.33401e-08
3.53227e-06
-9.45675e-08
3.55071e-06
-9.56306e-08
3.56931e-06
-9.65417e-08
3.58806e-06
-9.73135e-08
3.60691e-06
-9.7959e-08
3.62586e-06
-9.84907e-08
3.64488e-06
-9.8921e-08
3.66394e-06
-9.92611e-08
3.68305e-06
-9.95211e-08
3.70217e-06
-9.97095e-08
3.7213e-06
-9.98331e-08
3.74043e-06
-9.98967e-08
3.75954e-06
-9.99033e-08
3.77862e-06
-9.98539e-08
3.79767e-06
-9.97474e-08
3.81666e-06
-9.95814e-08
3.8356e-06
-9.93515e-08
3.85445e-06
-9.9052e-08
3.87322e-06
-9.86761e-08
3.89187e-06
-9.82156e-08
3.91041e-06
-9.76616e-08
3.92879e-06
-9.70043e-08
3.94701e-06
-9.62332e-08
3.96504e-06
-9.53369e-08
3.98286e-06
-9.43037e-08
4.00043e-06
-9.3121e-08
4.01773e-06
-9.17753e-08
4.03472e-06
-9.02525e-08
4.05137e-06
-8.85373e-08
4.06764e-06
-8.66133e-08
4.0835e-06
-8.44625e-08
4.09889e-06
-8.20651e-08
4.11377e-06
-7.93992e-08
4.12809e-06
-7.64401e-08
4.1418e-06
-7.31601e-08
4.15484e-06
-6.95273e-08
4.16714e-06
-6.55055e-08
4.17863e-06
-6.10526e-08
4.18926e-06
-5.61196e-08
4.19892e-06
-5.06493e-08
4.20755e-06
-4.45745e-08
4.21505e-06
-3.78157e-08
4.22133e-06
-3.02787e-08
4.22627e-06
-2.18513e-08
4.22978e-06
-1.23995e-08
4.23175e-06
-1.76445e-09
4.23209e-06
1.02425e-08
4.2307e-06
2.38445e-08
4.22754e-06
3.93138e-08
4.22262e-06
5.69721e-08
4.21602e-06
7.71957e-08
4.20799e-06
1.00416e-07
4.19897e-06
1.27113e-07
4.18976e-06
1.57789e-07
4.1816e-06
1.92919e-07
4.17636e-06
2.32843e-07
4.17666e-06
2.77582e-07
4.18586e-06
3.26523e-07
4.20761e-06
3.77945e-07
4.24456e-06
4.28417e-07
4.72383e-07
4.29547e-06
3.49516e-06
-1.35372e-08
3.49943e-06
-2.59339e-08
3.50551e-06
-3.65257e-08
3.51318e-06
-4.57543e-08
3.52227e-06
-5.38892e-08
3.5326e-06
-6.1124e-08
3.54405e-06
-6.76003e-08
3.55651e-06
-7.34289e-08
3.56987e-06
-7.86966e-08
3.58404e-06
-8.34719e-08
3.59896e-06
-8.78098e-08
3.61455e-06
-9.17547e-08
3.63075e-06
-9.53422e-08
3.6475e-06
-9.86011e-08
3.66475e-06
-1.01555e-07
3.68244e-06
-1.04223e-07
3.70054e-06
-1.06621e-07
3.71899e-06
-1.08765e-07
3.73775e-06
-1.10668e-07
3.75678e-06
-1.12343e-07
3.77605e-06
-1.13805e-07
3.79552e-06
-1.15067e-07
3.81516e-06
-1.16145e-07
3.83494e-06
-1.17054e-07
3.85482e-06
-1.17809e-07
3.8748e-06
-1.18426e-07
3.89483e-06
-1.18919e-07
3.91491e-06
-1.19303e-07
3.93502e-06
-1.19589e-07
3.95513e-06
-1.19788e-07
3.97525e-06
-1.19907e-07
3.99534e-06
-1.19954e-07
4.01541e-06
-1.19931e-07
4.03544e-06
-1.1984e-07
4.05541e-06
-1.1968e-07
4.07532e-06
-1.19448e-07
4.09514e-06
-1.19138e-07
4.11487e-06
-1.18745e-07
4.1345e-06
-1.1826e-07
4.15399e-06
-1.17673e-07
4.17335e-06
-1.16974e-07
4.19253e-06
-1.16152e-07
4.21153e-06
-1.15194e-07
4.23032e-06
-1.14086e-07
4.24887e-06
-1.12815e-07
4.26715e-06
-1.11366e-07
4.28514e-06
-1.09724e-07
4.30279e-06
-1.07872e-07
4.32008e-06
-1.05793e-07
4.33697e-06
-1.03467e-07
4.35342e-06
-1.00874e-07
4.36938e-06
-9.79926e-08
4.38482e-06
-9.47972e-08
4.39967e-06
-9.12607e-08
4.4139e-06
-8.73523e-08
4.42744e-06
-8.30373e-08
4.44024e-06
-7.82764e-08
4.45225e-06
-7.30245e-08
4.46339e-06
-6.72299e-08
4.4736e-06
-6.08329e-08
4.48282e-06
-5.37643e-08
4.49098e-06
-4.59441e-08
4.49801e-06
-3.72787e-08
4.50385e-06
-2.76597e-08
4.50844e-06
-1.69605e-08
4.51174e-06
-5.03545e-09
4.51373e-06
8.28085e-09
4.51443e-06
2.31744e-08
4.5139e-06
3.98612e-08
4.51232e-06
5.85825e-08
4.50994e-06
7.9599e-08
4.5072e-06
1.03181e-07
4.50475e-06
1.29589e-07
4.50353e-06
1.5904e-07
4.50482e-06
1.91653e-07
4.51032e-06
2.27365e-07
4.52212e-06
2.65811e-07
4.54251e-06
3.06158e-07
4.57357e-06
3.46903e-07
4.6163e-06
3.85715e-07
4.19473e-07
4.66923e-06
3.73988e-06
-1.57422e-08
3.74433e-06
-3.03782e-08
3.7507e-06
-4.28854e-08
3.75875e-06
-5.38017e-08
3.7683e-06
-6.34304e-08
3.77918e-06
-7.19928e-08
3.79125e-06
-7.96554e-08
3.80439e-06
-8.65486e-08
3.81848e-06
-9.2775e-08
3.83345e-06
-9.8416e-08
3.8492e-06
-1.03537e-07
3.86565e-06
-1.0819e-07
3.88276e-06
-1.12419e-07
3.90044e-06
-1.16256e-07
3.91864e-06
-1.19731e-07
3.93731e-06
-1.22865e-07
3.9564e-06
-1.2568e-07
3.97586e-06
-1.28192e-07
3.99564e-06
-1.30417e-07
4.01571e-06
-1.32372e-07
4.03601e-06
-1.34074e-07
4.05652e-06
-1.35537e-07
4.07719e-06
-1.36782e-07
4.098e-06
-1.37825e-07
4.11892e-06
-1.38685e-07
4.13991e-06
-1.39381e-07
4.16096e-06
-1.39929e-07
4.18205e-06
-1.40346e-07
4.20315e-06
-1.40646e-07
4.22424e-06
-1.40842e-07
4.24532e-06
-1.40943e-07
4.26637e-06
-1.40957e-07
4.28737e-06
-1.40888e-07
4.30831e-06
-1.40738e-07
4.32918e-06
-1.40506e-07
4.34996e-06
-1.40188e-07
4.37064e-06
-1.3978e-07
4.39121e-06
-1.39272e-07
4.41165e-06
-1.38656e-07
4.43194e-06
-1.37922e-07
4.45207e-06
-1.37056e-07
4.472e-06
-1.36045e-07
4.49172e-06
-1.34876e-07
4.51121e-06
-1.33533e-07
4.53044e-06
-1.32e-07
4.54937e-06
-1.30262e-07
4.56799e-06
-1.28299e-07
4.58625e-06
-1.26094e-07
4.60412e-06
-1.23627e-07
4.62157e-06
-1.20878e-07
4.63856e-06
-1.17823e-07
4.65504e-06
-1.14439e-07
4.67098e-06
-1.10699e-07
4.68633e-06
-1.06574e-07
4.70104e-06
-1.02031e-07
4.71508e-06
-9.70344e-08
4.72838e-06
-9.15438e-08
4.7409e-06
-8.55133e-08
4.7526e-06
-7.88914e-08
4.76342e-06
-7.16194e-08
4.77332e-06
-6.36311e-08
4.78226e-06
-5.48508e-08
4.7902e-06
-4.5193e-08
4.79714e-06
-3.45608e-08
4.80305e-06
-2.28454e-08
4.80797e-06
-9.92543e-09
4.81195e-06
4.33093e-09
4.8151e-06
2.00598e-08
4.81758e-06
3.74072e-08
4.81966e-06
5.65253e-08
4.82173e-06
7.75593e-08
4.82431e-06
1.00633e-07
4.8281e-06
1.25829e-07
4.83401e-06
1.53155e-07
4.84318e-06
1.82511e-07
4.85694e-06
2.13628e-07
4.87676e-06
2.46015e-07
4.90406e-06
2.78885e-07
4.93988e-06
3.11102e-07
4.98444e-06
3.41184e-07
3.67423e-07
5.03651e-06
4.00175e-06
-1.80202e-08
4.00637e-06
-3.49993e-08
4.01302e-06
-4.95253e-08
4.02145e-06
-6.22251e-08
4.03147e-06
-7.34368e-08
4.0429e-06
-8.34078e-08
4.05558e-06
-9.2329e-08
4.0694e-06
-1.00351e-07
4.08424e-06
-1.07594e-07
4.1e-06
-1.14151e-07
4.11658e-06
-1.20099e-07
4.13392e-06
-1.255e-07
4.15193e-06
-1.30403e-07
4.17055e-06
-1.34848e-07
4.18971e-06
-1.38868e-07
4.20937e-06
-1.4249e-07
4.22946e-06
-1.45737e-07
4.24993e-06
-1.4863e-07
4.27074e-06
-1.51188e-07
4.29183e-06
-1.53429e-07
4.31317e-06
-1.55373e-07
4.33471e-06
-1.5704e-07
4.35642e-06
-1.58449e-07
4.37826e-06
-1.59621e-07
4.40019e-06
-1.6058e-07
4.4222e-06
-1.61344e-07
4.44425e-06
-1.61936e-07
4.46632e-06
-1.62373e-07
4.48839e-06
-1.62673e-07
4.51044e-06
-1.62849e-07
4.53246e-06
-1.62915e-07
4.55442e-06
-1.62877e-07
4.57632e-06
-1.62742e-07
4.59814e-06
-1.62512e-07
4.61987e-06
-1.62186e-07
4.64149e-06
-1.6176e-07
4.66298e-06
-1.61229e-07
4.68434e-06
-1.60583e-07
4.70554e-06
-1.59812e-07
4.72657e-06
-1.58904e-07
4.7474e-06
-1.57846e-07
4.76802e-06
-1.56622e-07
4.78841e-06
-1.55217e-07
4.80853e-06
-1.53613e-07
4.82837e-06
-1.51793e-07
4.84789e-06
-1.4974e-07
4.86707e-06
-1.47432e-07
4.88587e-06
-1.44852e-07
4.90426e-06
-1.41976e-07
4.9222e-06
-1.38784e-07
4.93967e-06
-1.35251e-07
4.95663e-06
-1.31352e-07
4.97303e-06
-1.27059e-07
4.98884e-06
-1.22343e-07
5.00401e-06
-1.17171e-07
5.01852e-06
-1.11507e-07
5.03233e-06
-1.05311e-07
5.04539e-06
-9.8541e-08
5.05769e-06
-9.11474e-08
5.06918e-06
-8.30767e-08
5.07985e-06
-7.42696e-08
5.0897e-06
-6.46605e-08
5.09872e-06
-5.41775e-08
5.10693e-06
-4.27422e-08
5.11439e-06
-3.02704e-08
5.12117e-06
-1.66728e-08
5.12739e-06
-1.85699e-09
5.13322e-06
1.42643e-08
5.13889e-06
3.17617e-08
5.14474e-06
5.07059e-08
5.15119e-06
7.1144e-08
5.15876e-06
9.30871e-08
5.16813e-06
1.16494e-07
5.18006e-06
1.4125e-07
5.19546e-06
1.67146e-07
5.21526e-06
1.93848e-07
5.24043e-06
2.20881e-07
5.27173e-06
2.47607e-07
5.30962e-06
2.73236e-07
5.35398e-06
2.96856e-07
3.17544e-07
5.40388e-06
4.28195e-06
-2.03736e-08
4.28675e-06
-3.97954e-08
4.29368e-06
-5.64425e-08
4.30248e-06
-7.10206e-08
4.31296e-06
-8.39044e-08
4.32493e-06
-9.53652e-08
4.33823e-06
-1.05618e-07
4.35274e-06
-1.14835e-07
4.36831e-06
-1.23151e-07
4.38486e-06
-1.30676e-07
4.40228e-06
-1.37496e-07
4.42049e-06
-1.43683e-07
4.43941e-06
-1.49294e-07
4.45897e-06
-1.54375e-07
4.4791e-06
-1.58965e-07
4.49974e-06
-1.63094e-07
4.52083e-06
-1.6679e-07
4.54231e-06
-1.70076e-07
4.56413e-06
-1.72974e-07
4.58625e-06
-1.75506e-07
4.60861e-06
-1.77695e-07
4.63118e-06
-1.79562e-07
4.6539e-06
-1.81131e-07
4.67675e-06
-1.82426e-07
4.69969e-06
-1.83473e-07
4.72268e-06
-1.84295e-07
4.74571e-06
-1.84916e-07
4.76874e-06
-1.85357e-07
4.79175e-06
-1.85638e-07
4.81473e-06
-1.85776e-07
4.83764e-06
-1.85784e-07
4.86049e-06
-1.85673e-07
4.88324e-06
-1.85448e-07
4.90589e-06
-1.85113e-07
4.92842e-06
-1.84668e-07
4.95082e-06
-1.84108e-07
4.97307e-06
-1.83427e-07
4.99515e-06
-1.82616e-07
5.01705e-06
-1.81663e-07
5.03875e-06
-1.80554e-07
5.06022e-06
-1.79276e-07
5.08146e-06
-1.77811e-07
5.10243e-06
-1.76142e-07
5.12312e-06
-1.74251e-07
5.14349e-06
-1.72119e-07
5.16352e-06
-1.69726e-07
5.18319e-06
-1.67051e-07
5.20245e-06
-1.64074e-07
5.22129e-06
-1.60771e-07
5.23968e-06
-1.57121e-07
5.25757e-06
-1.53099e-07
5.27494e-06
-1.48679e-07
5.29175e-06
-1.43833e-07
5.30799e-06
-1.38534e-07
5.32361e-06
-1.32749e-07
5.33859e-06
-1.26446e-07
5.3529e-06
-1.19587e-07
5.36654e-06
-1.12134e-07
5.37947e-06
-1.04044e-07
5.39171e-06
-9.52731e-08
5.40325e-06
-8.57711e-08
5.41411e-06
-7.5487e-08
5.42434e-06
-6.43667e-08
5.43399e-06
-5.23544e-08
5.44315e-06
-3.93942e-08
5.45194e-06
-2.54314e-08
5.46053e-06
-1.04157e-08
5.46913e-06
5.6961e-09
5.47801e-06
2.29183e-08
5.4875e-06
4.1248e-08
5.49802e-06
6.06606e-08
5.51004e-06
8.10933e-08
5.52414e-06
1.02435e-07
5.5409e-06
1.24515e-07
5.56099e-06
1.47092e-07
5.58501e-06
1.6985e-07
5.61354e-06
1.92389e-07
5.64694e-06
2.14237e-07
5.68534e-06
2.34866e-07
5.72849e-06
2.53729e-07
2.70332e-07
5.77573e-06
4.58178e-06
-2.28039e-08
4.58675e-06
-4.4764e-08
4.59394e-06
-6.36326e-08
4.60312e-06
-8.01825e-08
4.61405e-06
-9.4826e-08
4.62656e-06
-1.07858e-07
4.64047e-06
-1.19516e-07
4.65565e-06
-1.29992e-07
4.67196e-06
-1.39441e-07
4.68929e-06
-1.47984e-07
4.70754e-06
-1.55721e-07
4.72662e-06
-1.62732e-07
4.74644e-06
-1.69084e-07
4.76693e-06
-1.7483e-07
4.78801e-06
-1.80011e-07
4.80961e-06
-1.84666e-07
4.83169e-06
-1.88824e-07
4.85416e-06
-1.92513e-07
4.87699e-06
-1.95759e-07
4.90011e-06
-1.98585e-07
4.92348e-06
-2.01017e-07
4.94704e-06
-2.03081e-07
4.97076e-06
-2.04803e-07
4.99459e-06
-2.06212e-07
5.0185e-06
-2.07334e-07
5.04245e-06
-2.08199e-07
5.06642e-06
-2.08831e-07
5.09037e-06
-2.09257e-07
5.11428e-06
-2.09498e-07
5.13813e-06
-2.09574e-07
5.1619e-06
-2.09501e-07
5.18556e-06
-2.09289e-07
5.20912e-06
-2.08948e-07
5.23254e-06
-2.08481e-07
5.25581e-06
-2.07887e-07
5.27892e-06
-2.07164e-07
5.30184e-06
-2.06303e-07
5.32458e-06
-2.05297e-07
5.3471e-06
-2.04131e-07
5.36939e-06
-2.02792e-07
5.39143e-06
-2.01264e-07
5.4132e-06
-1.99528e-07
5.43467e-06
-1.97568e-07
5.45584e-06
-1.95363e-07
5.47666e-06
-1.92892e-07
5.49712e-06
-1.90136e-07
5.51719e-06
-1.87073e-07
5.53685e-06
-1.83681e-07
5.55606e-06
-1.79938e-07
5.57481e-06
-1.7582e-07
5.59306e-06
-1.71304e-07
5.61079e-06
-1.66364e-07
5.62798e-06
-1.60976e-07
5.64461e-06
-1.55112e-07
5.66065e-06
-1.48745e-07
5.67609e-06
-1.41844e-07
5.69092e-06
-1.34378e-07
5.70515e-06
-1.26317e-07
5.71877e-06
-1.17624e-07
5.73181e-06
-1.08267e-07
5.74429e-06
-9.82098e-08
5.75626e-06
-8.74172e-08
5.76778e-06
-7.58552e-08
5.77896e-06
-6.3492e-08
5.78991e-06
-5.03001e-08
5.80077e-06
-3.6258e-08
5.81174e-06
-2.13526e-08
5.82306e-06
-5.57924e-09
5.83497e-06
1.10422e-08
5.8478e-06
2.84559e-08
5.8619e-06
4.65889e-08
5.87769e-06
6.53387e-08
5.8956e-06
8.45656e-08
5.91606e-06
1.04088e-07
5.9395e-06
1.23681e-07
5.96631e-06
1.43075e-07
5.99676e-06
1.61966e-07
6.03101e-06
1.80019e-07
6.06902e-06
1.96893e-07
6.11051e-06
2.12266e-07
2.25874e-07
6.155e-06
4.90259e-06
-2.53117e-08
4.90773e-06
-4.99014e-08
4.9152e-06
-7.10891e-08
4.92473e-06
-8.97018e-08
4.9361e-06
-1.06191e-07
4.94913e-06
-1.20873e-07
4.96364e-06
-1.34008e-07
4.97948e-06
-1.45809e-07
4.99651e-06
-1.56446e-07
5.01461e-06
-1.66058e-07
5.03367e-06
-1.74755e-07
5.0536e-06
-1.82629e-07
5.0743e-06
-1.89754e-07
5.0957e-06
-1.9619e-07
5.11771e-06
-2.01986e-07
5.14026e-06
-2.07182e-07
5.16329e-06
-2.11816e-07
5.18674e-06
-2.15916e-07
5.21053e-06
-2.19512e-07
5.23463e-06
-2.22633e-07
5.25896e-06
-2.25305e-07
5.28349e-06
-2.2756e-07
5.30816e-06
-2.29426e-07
5.33294e-06
-2.30935e-07
5.35777e-06
-2.32118e-07
5.38263e-06
-2.33006e-07
5.40748e-06
-2.33631e-07
5.4323e-06
-2.34018e-07
5.45705e-06
-2.34195e-07
5.48171e-06
-2.34182e-07
5.50627e-06
-2.33999e-07
5.53069e-06
-2.33659e-07
5.55497e-06
-2.3317e-07
5.57908e-06
-2.32538e-07
5.60301e-06
-2.31764e-07
5.62675e-06
-2.30845e-07
5.65028e-06
-2.29772e-07
5.67357e-06
-2.28537e-07
5.69662e-06
-2.27126e-07
5.71941e-06
-2.25525e-07
5.74192e-06
-2.23715e-07
5.76413e-06
-2.2168e-07
5.78601e-06
-2.19399e-07
5.80756e-06
-2.16853e-07
5.82874e-06
-2.1402e-07
5.84954e-06
-2.1088e-07
5.86993e-06
-2.0741e-07
5.88989e-06
-2.03589e-07
5.9094e-06
-1.99395e-07
5.92843e-06
-1.94806e-07
5.94698e-06
-1.89799e-07
5.96502e-06
-1.84351e-07
5.98253e-06
-1.7844e-07
5.99951e-06
-1.72041e-07
6.01594e-06
-1.65132e-07
6.03183e-06
-1.57689e-07
6.04719e-06
-1.49687e-07
6.06202e-06
-1.41103e-07
6.07636e-06
-1.31913e-07
6.09023e-06
-1.22095e-07
6.10369e-06
-1.11628e-07
6.11681e-06
-1.00495e-07
6.12968e-06
-8.86812e-08
6.14241e-06
-7.6177e-08
6.15513e-06
-6.29803e-08
6.16801e-06
-4.90976e-08
6.18125e-06
-3.45462e-08
6.19506e-06
-1.93545e-08
6.2097e-06
-3.56083e-09
6.22543e-06
1.27631e-08
6.24255e-06
2.9511e-08
6.26136e-06
4.6564e-08
6.28218e-06
6.37808e-08
6.30531e-06
8.09951e-08
6.33101e-06
9.80167e-08
6.35949e-06
1.14636e-07
6.39086e-06
1.30629e-07
6.42514e-06
1.4577e-07
6.46223e-06
1.59843e-07
6.50187e-06
1.7266e-07
1.84085e-07
6.54369e-06
5.24587e-06
-2.78961e-08
5.25117e-06
-5.52019e-08
5.25889e-06
-7.88019e-08
5.26877e-06
-9.95654e-08
5.28057e-06
-1.17982e-07
5.29411e-06
-1.34391e-07
5.30919e-06
-1.49073e-07
5.32567e-06
-1.62261e-07
5.34339e-06
-1.74143e-07
5.36223e-06
-1.84872e-07
5.38208e-06
-1.94572e-07
5.40282e-06
-2.03344e-07
5.42438e-06
-2.11272e-07
5.44665e-06
-2.18422e-07
5.46955e-06
-2.24851e-07
5.49301e-06
-2.30605e-07
5.51697e-06
-2.35723e-07
5.54133e-06
-2.4024e-07
5.56606e-06
-2.44189e-07
5.59108e-06
-2.47601e-07
5.61633e-06
-2.50509e-07
5.64177e-06
-2.52945e-07
5.66733e-06
-2.54942e-07
5.69299e-06
-2.56535e-07
5.71869e-06
-2.5776e-07
5.74439e-06
-2.58652e-07
5.77006e-06
-2.59244e-07
5.79567e-06
-2.59567e-07
5.82118e-06
-2.59651e-07
5.84658e-06
-2.5952e-07
5.87183e-06
-2.59195e-07
5.89693e-06
-2.58693e-07
5.92184e-06
-2.58023e-07
5.94655e-06
-2.57192e-07
5.97105e-06
-2.56203e-07
5.99532e-06
-2.55052e-07
6.01934e-06
-2.53732e-07
6.04309e-06
-2.52233e-07
6.06657e-06
-2.50542e-07
6.08975e-06
-2.48645e-07
6.11262e-06
-2.46522e-07
6.13515e-06
-2.44157e-07
6.15734e-06
-2.41528e-07
6.17916e-06
-2.38615e-07
6.2006e-06
-2.35397e-07
6.22163e-06
-2.31854e-07
6.24224e-06
-2.27963e-07
6.26241e-06
-2.23704e-07
6.28213e-06
-2.19056e-07
6.30137e-06
-2.13998e-07
6.32014e-06
-2.08511e-07
6.33842e-06
-2.02574e-07
6.3562e-06
-1.96169e-07
6.37349e-06
-1.89276e-07
6.39028e-06
-1.81878e-07
6.4066e-06
-1.73957e-07
6.42246e-06
-1.65498e-07
6.4379e-06
-1.56486e-07
6.45294e-06
-1.4691e-07
6.46765e-06
-1.36758e-07
6.4821e-06
-1.26026e-07
6.49636e-06
-1.1471e-07
6.51054e-06
-1.02816e-07
6.52476e-06
-9.03508e-08
6.53916e-06
-7.73345e-08
6.5539e-06
-6.37937e-08
6.56917e-06
-4.97666e-08
6.58516e-06
-3.53026e-08
6.6021e-06
-2.04617e-08
6.62022e-06
-5.31055e-09
6.63971e-06
1.0053e-08
6.66082e-06
2.55039e-08
6.68373e-06
4.0906e-08
6.70864e-06
5.61208e-08
6.7357e-06
7.09972e-08
6.765e-06
8.53789e-08
6.79655e-06
9.91094e-08
6.83032e-06
1.12039e-07
6.86617e-06
1.24033e-07
6.90388e-06
1.34985e-07
1.44828e-07
6.94317e-06
5.61318e-06
-3.05542e-08
5.61864e-06
-6.06571e-08
5.6266e-06
-8.67568e-08
5.6368e-06
-1.09755e-07
5.64901e-06
-1.30178e-07
5.66303e-06
-1.48386e-07
5.67865e-06
-1.64681e-07
5.69573e-06
-1.79315e-07
5.71411e-06
-1.92495e-07
5.73366e-06
-2.04387e-07
5.75425e-06
-2.15129e-07
5.77577e-06
-2.24832e-07
5.79812e-06
-2.3359e-07
5.82122e-06
-2.41477e-07
5.84497e-06
-2.48556e-07
5.86928e-06
-2.54878e-07
5.89409e-06
-2.60487e-07
5.91933e-06
-2.65424e-07
5.94491e-06
-2.69724e-07
5.97079e-06
-2.73423e-07
5.99689e-06
-2.76557e-07
6.02316e-06
-2.79161e-07
6.04955e-06
-2.81273e-07
6.076e-06
-2.82932e-07
6.10248e-06
-2.84178e-07
6.12893e-06
-2.85047e-07
6.15533e-06
-2.85579e-07
6.18163e-06
-2.85809e-07
6.20781e-06
-2.85768e-07
6.23384e-06
-2.85486e-07
6.2597e-06
-2.84985e-07
6.28535e-06
-2.84284e-07
6.31079e-06
-2.83396e-07
6.33599e-06
-2.82329e-07
6.36094e-06
-2.81086e-07
6.38561e-06
-2.79665e-07
6.41001e-06
-2.7806e-07
6.4341e-06
-2.76261e-07
6.45788e-06
-2.74256e-07
6.48133e-06
-2.72028e-07
6.50443e-06
-2.69561e-07
6.52717e-06
-2.66835e-07
6.54954e-06
-2.63831e-07
6.57151e-06
-2.60528e-07
6.59308e-06
-2.56905e-07
6.61423e-06
-2.52944e-07
6.63495e-06
-2.48622e-07
6.65523e-06
-2.43921e-07
6.67506e-06
-2.38821e-07
6.69443e-06
-2.33305e-07
6.71333e-06
-2.27356e-07
6.73177e-06
-2.20958e-07
6.74976e-06
-2.14096e-07
6.7673e-06
-2.06757e-07
6.7844e-06
-1.98929e-07
6.80111e-06
-1.90603e-07
6.81743e-06
-1.81772e-07
6.83343e-06
-1.7243e-07
6.84915e-06
-1.62577e-07
6.86466e-06
-1.52213e-07
6.88003e-06
-1.41346e-07
6.89536e-06
-1.29988e-07
6.91075e-06
-1.18156e-07
6.92632e-06
-1.05874e-07
6.94221e-06
-9.31751e-08
6.95857e-06
-8.00997e-08
6.97555e-06
-6.66978e-08
6.99332e-06
-5.3029e-08
7.01206e-06
-3.91616e-08
7.03197e-06
-2.5171e-08
7.0532e-06
-1.11344e-08
7.0759e-06
2.85415e-09
7.10017e-06
1.66781e-08
7.12612e-06
3.02142e-08
7.15381e-06
4.33439e-08
7.18328e-06
5.59566e-08
7.21448e-06
6.79441e-08
7.24735e-06
7.92094e-08
7.28176e-06
8.96707e-08
7.31751e-06
9.92679e-08
1.07973e-07
7.35441e-06
6.0062e-06
-3.32811e-08
6.01181e-06
-6.62551e-08
6.01999e-06
-9.49345e-08
6.0305e-06
-1.20244e-07
6.04308e-06
-1.42745e-07
6.05753e-06
-1.62821e-07
6.07366e-06
-1.80791e-07
6.0913e-06
-1.96927e-07
6.11029e-06
-2.11452e-07
6.13048e-06
-2.24549e-07
6.15175e-06
-2.36368e-07
6.17399e-06
-2.47033e-07
6.19708e-06
-2.56644e-07
6.22094e-06
-2.65286e-07
6.24545e-06
-2.73027e-07
6.27055e-06
-2.79925e-07
6.29614e-06
-2.8603e-07
6.32215e-06
-2.91385e-07
6.34851e-06
-2.96031e-07
6.37515e-06
-3.00008e-07
6.40201e-06
-3.03354e-07
6.42902e-06
-3.0611e-07
6.45612e-06
-3.08318e-07
6.48327e-06
-3.1002e-07
6.51042e-06
-3.11259e-07
6.53751e-06
-3.12079e-07
6.56452e-06
-3.12521e-07
6.5914e-06
-3.12623e-07
6.61812e-06
-3.12423e-07
6.64466e-06
-3.11952e-07
6.67098e-06
-3.11237e-07
6.69706e-06
-3.10299e-07
6.72289e-06
-3.09153e-07
6.74844e-06
-3.07809e-07
6.77369e-06
-3.06273e-07
6.79864e-06
-3.04543e-07
6.82326e-06
-3.02614e-07
6.84755e-06
-3.00478e-07
6.87148e-06
-2.98121e-07
6.89506e-06
-2.95529e-07
6.91825e-06
-2.92686e-07
6.94106e-06
-2.89572e-07
6.96346e-06
-2.86168e-07
6.98545e-06
-2.82454e-07
7.00703e-06
-2.78412e-07
7.02817e-06
-2.74021e-07
7.04888e-06