/*--------------------------------*- C++ -*----------------------------------*\
| =========                 |                                                 |
| \\      /  F ield         | OpenFOAM: The Open Source CFD Toolbox           |
|  \\    /   O peration     | Version:  2112                                  |
|   \\  /    A nd           | Website:  www.openfoam.com                      |
|    \\/     M anipulation  |                                                 |
\*---------------------------------------------------------------------------*/
FoamFile
{
    version     2.0;
    format      ascii;
    arch        "LSB;label=32;scalar=64";
    class       volScalarField;
    location    "3";
    object      T;
}
// * * * * * * * * * * * * * * * * * * * * * * * * * * * * * * * * * * * * * //

dimensions      [0 0 0 1 0 0 0];

internalField   nonuniform List<scalar> 
12013
(
300.002
300.006
300.011
300.016
300.021
300.026
300.031
300.037
300.043
300.05
300.056
300.064
300.071
300.079
300.088
300.096
300.106
300.116
300.126
300.137
300.148
300.16
300.173
300.186
300.199
300.214
300.228
300.244
300.26
300.277
300.295
300.313
300.332
300.351
300.372
300.393
300.414
300.437
300.46
300.485
300.509
300.535
300.562
300.589
300.618
300.647
300.677
300.708
300.74
300.772
300.806
300.841
300.877
300.913
300.951
300.99
301.03
301.071
301.113
301.157
301.202
301.248
301.295
301.344
301.395
301.447
301.5
301.556
301.613
301.672
301.734
301.798
301.864
301.934
302.007
302.084
302.166
302.254
302.349
302.455
302.577
300.002
300.006
300.011
300.016
300.021
300.026
300.031
300.037
300.043
300.05
300.056
300.064
300.071
300.079
300.088
300.096
300.106
300.116
300.126
300.137
300.148
300.16
300.173
300.186
300.199
300.214
300.228
300.244
300.26
300.277
300.294
300.313
300.332
300.351
300.372
300.393
300.414
300.437
300.46
300.484
300.509
300.535
300.562
300.589
300.617
300.647
300.677
300.708
300.739
300.772
300.806
300.841
300.876
300.913
300.951
300.99
301.03
301.071
301.113
301.157
301.201
301.247
301.295
301.344
301.394
301.446
301.499
301.555
301.612
301.671
301.732
301.796
301.862
301.931
302.004
302.08
302.161
302.247
302.339
302.44
302.549
300.002
300.006
300.011
300.016
300.021
300.026
300.031
300.037
300.043
300.05
300.056
300.064
300.071
300.079
300.088
300.096
300.106
300.116
300.126
300.137
300.148
300.16
300.173
300.186
300.199
300.214
300.228
300.244
300.26
300.277
300.294
300.313
300.331
300.351
300.371
300.392
300.414
300.437
300.46
300.484
300.509
300.535
300.562
300.589
300.617
300.646
300.676
300.707
300.739
300.772
300.806
300.84
300.876
300.913
300.95
300.989
301.029
301.07
301.112
301.156
301.2
301.246
301.294
301.342
301.392
301.444
301.497
301.552
301.609
301.668
301.729
301.792
301.858
301.926
301.998
302.072
302.151
302.234
302.321
302.414
302.51
300.002
300.006
300.011
300.016
300.021
300.026
300.031
300.037
300.043
300.05
300.056
300.064
300.071
300.079
300.088
300.096
300.106
300.116
300.126
300.137
300.148
300.16
300.172
300.186
300.199
300.213
300.228
300.244
300.26
300.277
300.294
300.312
300.331
300.351
300.371
300.392
300.414
300.437
300.46
300.484
300.509
300.535
300.561
300.589
300.617
300.646
300.676
300.707
300.739
300.771
300.805
300.84
300.875
300.912
300.949
300.988
301.028
301.069
301.111
301.154
301.199
301.244
301.292
301.34
301.39
301.441
301.494
301.549
301.605
301.663
301.724
301.786
301.851
301.918
301.987
302.06
302.135
302.214
302.296
302.381
302.467
300.002
300.006
300.011
300.016
300.021
300.026
300.031
300.037
300.043
300.05
300.056
300.063
300.071
300.079
300.087
300.096
300.106
300.116
300.126
300.137
300.148
300.16
300.172
300.185
300.199
300.213
300.228
300.244
300.26
300.277
300.294
300.312
300.331
300.351
300.371
300.392
300.414
300.436
300.46
300.484
300.509
300.534
300.561
300.588
300.616
300.645
300.675
300.706
300.738
300.77
300.804
300.839
300.874
300.911
300.948
300.987
301.026
301.067
301.109
301.152
301.196
301.242
301.289
301.337
301.386
301.437
301.49
301.544
301.599
301.657
301.716
301.777
301.84
301.906
301.973
302.043
302.115
302.189
302.265
302.343
302.42
300.002
300.006
300.011
300.016
300.02
300.026
300.031
300.037
300.043
300.049
300.056
300.063
300.071
300.079
300.087
300.096
300.106
300.115
300.126
300.137
300.148
300.16
300.172
300.185
300.199
300.213
300.228
300.244
300.26
300.276
300.294
300.312
300.331
300.35
300.371
300.392
300.413
300.436
300.459
300.483
300.508
300.534
300.56
300.587
300.616
300.644
300.674
300.705
300.737
300.769
300.803
300.837
300.873
300.909
300.946
300.985
301.024
301.065
301.106
301.149
301.193
301.238
301.285
301.332
301.381
301.432
301.483
301.537
301.591
301.648
301.706
301.765
301.827
301.89
301.955
302.022
302.09
302.159
302.23
302.301
302.372
300.002
300.006
300.011
300.016
300.02
300.026
300.031
300.037
300.043
300.049
300.056
300.063
300.071
300.079
300.087
300.096
300.106
300.115
300.126
300.136
300.148
300.16
300.172
300.185
300.199
300.213
300.228
300.243
300.259
300.276
300.294
300.312
300.331
300.35
300.37
300.391
300.413
300.435
300.459
300.483
300.507
300.533
300.559
300.586
300.615
300.643
300.673
300.704
300.735
300.768
300.801
300.835
300.871
300.907
300.944
300.982
301.021
301.062
301.103
301.145
301.189
301.234
301.279
301.327
301.375
301.424
301.475
301.528
301.581
301.636
301.693
301.751
301.81
301.871
301.933
301.996
302.06
302.126
302.191
302.257
302.321
300.002
300.006
300.011
300.016
300.02
300.026
300.031
300.037
300.043
300.049
300.056
300.063
300.071
300.079
300.087
300.096
300.105
300.115
300.126
300.136
300.148
300.16
300.172
300.185
300.199
300.213
300.228
300.243
300.259
300.276
300.293
300.311
300.33
300.349
300.37
300.391
300.412
300.435
300.458
300.482
300.506
300.532
300.558
300.585
300.613
300.642
300.672
300.702
300.733
300.766
300.799
300.833
300.868
300.904
300.941
300.979
301.018
301.057
301.098
301.14
301.183
301.228
301.273
301.319
301.367
301.415
301.465
301.516
301.569
301.622
301.677
301.733
301.79
301.848
301.907
301.967
302.027
302.088
302.149
302.21
302.269
300.002
300.006
300.011
300.016
300.02
300.026
300.031
300.037
300.043
300.049
300.056
300.063
300.071
300.079
300.087
300.096
300.105
300.115
300.125
300.136
300.147
300.159
300.172
300.185
300.198
300.212
300.227
300.243
300.259
300.275
300.293
300.311
300.329
300.349
300.369
300.39
300.411
300.434
300.457
300.481
300.505
300.531
300.557
300.584
300.612
300.64
300.67
300.7
300.731
300.763
300.796
300.83
300.865
300.9
300.937
300.974
301.013
301.052
301.093
301.134
301.177
301.22
301.265
301.31
301.357
301.404
301.453
301.503
301.554
301.605
301.658
301.712
301.766
301.822
301.878
301.934
301.991
302.048
302.104
302.16
302.216
300.002
300.006
300.011
300.015
300.02
300.026
300.031
300.037
300.043
300.049
300.056
300.063
300.071
300.079
300.087
300.096
300.105
300.115
300.125
300.136
300.147
300.159
300.171
300.184
300.198
300.212
300.227
300.242
300.258
300.275
300.292
300.31
300.329
300.348
300.368
300.389
300.41
300.433
300.455
300.479
300.504
300.529
300.555
300.582
300.609
300.638
300.667
300.697
300.728
300.76
300.793
300.826
300.861
300.896
300.932
300.969
301.007
301.046
301.086
301.127
301.168
301.211
301.255
301.299
301.345
301.391
301.438
301.487
301.536
301.586
301.636
301.688
301.74
301.792
301.845
301.898
301.951
302.004
302.057
302.109
302.161
300.002
300.006
300.011
300.015
300.02
300.026
300.031
300.037
300.043
300.049
300.056
300.063
300.071
300.078
300.087
300.096
300.105
300.115
300.125
300.136
300.147
300.159
300.171
300.184
300.197
300.211
300.226
300.241
300.257
300.274
300.291
300.309
300.328
300.347
300.367
300.388
300.409
300.431
300.454
300.478
300.502
300.527
300.553
300.58
300.607
300.635
300.664
300.694
300.725
300.756
300.788
300.822
300.856
300.89
300.926
300.963
301
301.038
301.078
301.118
301.158
301.2
301.243
301.286
301.33
301.375
301.421
301.468
301.515
301.563
301.611
301.66
301.71
301.759
301.809
301.859
301.909
301.959
302.008
302.056
302.104
300.002
300.006
300.011
300.015
300.02
300.025
300.031
300.037
300.043
300.049
300.056
300.063
300.07
300.078
300.087
300.095
300.105
300.114
300.125
300.135
300.146
300.158
300.171
300.183
300.197
300.211
300.225
300.241
300.257
300.273
300.29
300.308
300.327
300.346
300.366
300.386
300.407
300.429
300.452
300.476
300.5
300.525
300.55
300.577
300.604
300.632
300.661
300.69
300.72
300.752
300.783
300.816
300.85
300.884
300.919
300.955
300.992
301.029
301.068
301.107
301.147
301.187
301.229
301.271
301.314
301.357
301.402
301.446
301.492
301.537
301.584
301.63
301.677
301.724
301.771
301.818
301.864
301.911
301.956
302.002
302.046
300.002
300.006
300.011
300.015
300.02
300.025
300.031
300.037
300.043
300.049
300.056
300.063
300.07
300.078
300.086
300.095
300.104
300.114
300.124
300.135
300.146
300.158
300.17
300.183
300.196
300.21
300.225
300.24
300.256
300.272
300.289
300.307
300.325
300.344
300.364
300.384
300.406
300.427
300.45
300.473
300.497
300.522
300.547
300.573
300.6
300.628
300.656
300.685
300.715
300.746
300.778
300.81
300.843
300.876
300.911
300.946
300.982
301.019
301.056
301.094
301.133
301.173
301.213
301.254
301.295
301.337
301.379
301.422
301.465
301.509
301.553
301.597
301.641
301.685
301.73
301.774
301.817
301.86
301.903
301.945
301.987
300.002
300.006
300.011
300.015
300.02
300.025
300.031
300.036
300.042
300.049
300.055
300.063
300.07
300.078
300.086
300.095
300.104
300.114
300.124
300.134
300.145
300.157
300.169
300.182
300.195
300.209
300.224
300.239
300.254
300.271
300.288
300.305
300.324
300.342
300.362
300.382
300.403
300.425
300.447
300.47
300.494
300.518
300.543
300.569
300.596
300.623
300.651
300.68
300.709
300.74
300.77
300.802
300.834
300.867
300.901
300.936
300.971
301.006
301.043
301.08
301.118
301.156
301.195
301.234
301.274
301.314
301.354
301.395
301.437
301.478
301.52
301.561
301.603
301.644
301.686
301.727
301.768
301.808
301.848
301.888
301.926
300.002
300.006
300.011
300.015
300.02
300.025
300.031
300.036
300.042
300.049
300.055
300.062
300.07
300.077
300.086
300.094
300.103
300.113
300.123
300.134
300.145
300.156
300.168
300.181
300.194
300.208
300.223
300.237
300.253
300.269
300.286
300.304
300.322
300.34
300.36
300.38
300.401
300.422
300.444
300.467
300.49
300.514
300.539
300.565
300.591
300.618
300.645
300.673
300.702
300.732
300.762
300.793
300.825
300.857
300.89
300.924
300.958
300.992
301.028
301.064
301.1
301.137
301.174
301.212
301.25
301.288
301.327
301.366
301.405
301.444
301.484
301.523
301.562
301.601
301.64
301.678
301.717
301.754
301.792
301.828
301.864
300.002
300.006
300.011
300.015
300.02
300.025
300.03
300.036
300.042
300.048
300.055
300.062
300.069
300.077
300.085
300.094
300.103
300.112
300.122
300.133
300.144
300.155
300.167
300.18
300.193
300.207
300.221
300.236
300.251
300.267
300.284
300.301
300.319
300.338
300.357
300.377
300.397
300.418
300.44
300.463
300.486
300.509
300.534
300.559
300.585
300.611
300.638
300.666
300.694
300.723
300.753
300.783
300.814
300.845
300.877
300.91
300.943
300.976
301.01
301.045
301.08
301.115
301.151
301.187
301.224
301.26
301.297
301.334
301.371
301.408
301.445
301.482
301.519
301.555
301.592
301.628
301.663
301.699
301.734
301.768
301.802
300.002
300.006
300.011
300.015
300.02
300.025
300.03
300.036
300.042
300.048
300.055
300.062
300.069
300.077
300.085
300.093
300.102
300.112
300.122
300.132
300.143
300.154
300.166
300.179
300.192
300.205
300.219
300.234
300.249
300.265
300.282
300.299
300.317
300.335
300.354
300.373
300.394
300.414
300.436
300.458
300.481
300.504
300.528
300.553
300.578
300.604
300.63
300.657
300.685
300.713
300.742
300.771
300.801
300.832
300.863
300.894
300.926
300.958
300.991
301.024
301.058
301.092
301.126
301.16
301.195
301.23
301.264
301.299
301.334
301.369
301.404
301.439
301.473
301.508
301.542
301.575
301.609
301.641
301.674
301.706
301.737
300.002
300.006
300.01
300.015
300.02
300.025
300.03
300.036
300.042
300.048
300.054
300.061
300.068
300.076
300.084
300.093
300.102
300.111
300.121
300.131
300.142
300.153
300.165
300.177
300.19
300.204
300.218
300.232
300.247
300.263
300.279
300.296
300.313
300.331
300.35
300.369
300.389
300.41
300.431
300.452
300.475
300.498
300.521
300.545
300.57
300.595
300.621
300.647
300.674
300.702
300.73
300.758
300.787
300.816
300.846
300.877
300.907
300.938
300.97
301.002
301.034
301.066
301.098
301.131
301.164
301.197
301.229
301.262
301.295
301.328
301.361
301.393
301.426
301.458
301.49
301.521
301.552
301.583
301.613
301.643
301.672
300.002
300.006
300.01
300.015
300.02
300.025
300.03
300.035
300.041
300.047
300.054
300.061
300.068
300.075
300.083
300.092
300.101
300.11
300.12
300.13
300.141
300.152
300.163
300.176
300.188
300.202
300.215
300.23
300.245
300.26
300.276
300.293
300.31
300.328
300.346
300.365
300.384
300.404
300.425
300.446
300.468
300.49
300.513
300.537
300.561
300.585
300.61
300.636
300.662
300.689
300.716
300.743
300.771
300.799
300.828
300.857
300.887
300.916
300.946
300.977
301.007
301.038
301.068
301.099
301.13
301.161
301.192
301.223
301.254
301.285
301.316
301.346
301.376
301.406
301.436
301.465
301.494
301.523
301.551
301.579
301.606
300.002
300.006
300.01
300.015
300.019
300.024
300.03
300.035
300.041
300.047
300.053
300.06
300.067
300.075
300.083
300.091
300.1
300.109
300.118
300.129
300.139
300.15
300.162
300.174
300.186
300.199
300.213
300.227
300.242
300.257
300.272
300.289
300.306
300.323
300.341
300.359
300.378
300.398
300.418
300.439
300.46
300.482
300.504
300.527
300.55
300.574
300.598
300.623
300.648
300.674
300.7
300.726
300.753
300.78
300.808
300.836
300.864
300.892
300.921
300.949
300.978
301.007
301.036
301.065
301.095
301.124
301.153
301.182
301.211
301.24
301.268
301.297
301.325
301.353
301.381
301.408
301.435
301.462
301.488
301.514
301.539
300.002
300.006
300.01
300.015
300.019
300.024
300.029
300.035
300.04
300.046
300.053
300.059
300.066
300.074
300.082
300.09
300.098
300.108
300.117
300.127
300.137
300.148
300.16
300.171
300.184
300.196
300.21
300.224
300.238
300.253
300.268
300.284
300.301
300.318
300.335
300.353
300.372
300.391
300.411
300.431
300.451
300.473
300.494
300.516
300.539
300.562
300.585
300.609
300.633
300.658
300.683
300.708
300.734
300.76
300.786
300.812
300.839
300.866
300.893
300.92
300.947
300.975
301.002
301.03
301.057
301.084
301.112
301.139
301.166
301.193
301.219
301.246
301.272
301.298
301.324
301.349
301.374
301.399
301.424
301.448
301.471
300.002
300.006
300.01
300.014
300.019
300.024
300.029
300.034
300.04
300.046
300.052
300.059
300.066
300.073
300.081
300.089
300.097
300.106
300.115
300.125
300.135
300.146
300.157
300.169
300.181
300.193
300.206
300.22
300.234
300.249
300.264
300.279
300.295
300.312
300.329
300.346
300.365
300.383
300.402
300.422
300.442
300.462
300.483
300.504
300.526
300.548
300.57
300.593
300.616
300.64
300.664
300.688
300.712
300.737
300.762
300.787
300.812
300.838
300.863
300.889
300.914
300.94
300.966
300.992
301.017
301.043
301.068
301.094
301.119
301.144
301.169
301.193
301.218
301.242
301.266
301.29
301.313
301.336
301.358
301.381
301.403
300.002
300.006
300.01
300.014
300.019
300.024
300.029
300.034
300.039
300.045
300.051
300.058
300.065
300.072
300.079
300.087
300.096
300.104
300.113
300.123
300.133
300.143
300.154
300.166
300.178
300.19
300.203
300.216
300.23
300.244
300.258
300.273
300.289
300.305
300.322
300.339
300.356
300.374
300.393
300.411
300.431
300.45
300.47
300.491
300.512
300.533
300.554
300.576
300.598
300.621
300.643
300.666
300.689
300.713
300.736
300.76
300.784
300.808
300.832
300.856
300.88
300.904
300.928
300.952
300.976
301
301.023
301.047
301.07
301.094
301.117
301.14
301.162
301.185
301.207
301.229
301.25
301.272
301.293
301.313
301.334
300.002
300.006
300.01
300.014
300.018
300.023
300.028
300.033
300.039
300.044
300.05
300.057
300.063
300.071
300.078
300.086
300.094
300.102
300.111
300.121
300.13
300.141
300.151
300.162
300.174
300.186
300.198
300.211
300.224
300.238
300.252
300.267
300.282
300.298
300.314
300.33
300.347
300.364
300.382
300.4
300.418
300.437
300.456
300.476
300.496
300.516
300.536
300.557
300.578
300.599
300.621
300.643
300.664
300.686
300.709
300.731
300.753
300.776
300.798
300.821
300.843
300.866
300.888
300.91
300.933
300.955
300.977
300.999
301.02
301.042
301.063
301.085
301.106
301.126
301.147
301.167
301.187
301.207
301.226
301.245
301.264
300.002
300.006
300.01
300.014
300.018
300.023
300.027
300.033
300.038
300.044
300.049
300.056
300.062
300.069
300.076
300.084
300.092
300.1
300.109
300.118
300.128
300.137
300.148
300.159
300.17
300.181
300.193
300.206
300.219
300.232
300.246
300.26
300.274
300.289
300.305
300.321
300.337
300.353
300.37
300.387
300.405
300.423
300.441
300.46
300.479
300.498
300.517
300.537
300.557
300.577
300.597
300.617
300.638
300.659
300.679
300.7
300.721
300.742
300.763
300.784
300.805
300.826
300.847
300.867
300.888
300.909
300.929
300.949
300.969
300.989
301.009
301.029
301.048
301.067
301.086
301.105
301.123
301.141
301.159
301.177
301.194
300.002
300.006
300.009
300.013
300.018
300.022
300.027
300.032
300.037
300.043
300.048
300.054
300.061
300.067
300.075
300.082
300.09
300.098
300.106
300.115
300.124
300.134
300.144
300.154
300.165
300.176
300.188
300.2
300.212
300.225
300.238
300.252
300.266
300.28
300.295
300.31
300.325
300.341
300.357
300.374
300.391
300.408
300.425
300.442
300.46
300.478
300.497
300.515
300.534
300.553
300.572
300.591
300.61
300.629
300.649
300.668
300.687
300.707
300.726
300.746
300.765
300.785
300.804
300.823
300.842
300.861
300.88
300.899
300.917
300.936
300.954
300.972
300.99
301.007
301.025
301.042
301.059
301.076
301.092
301.108
301.124
300.002
300.005
300.009
300.013
300.017
300.022
300.026
300.031
300.036
300.041
300.047
300.053
300.059
300.066
300.073
300.08
300.087
300.095
300.103
300.112
300.121
300.13
300.14
300.15
300.16
300.171
300.182
300.193
300.205
300.218
300.23
300.243
300.257
300.27
300.284
300.299
300.313
300.328
300.343
300.359
300.375
300.391
300.407
300.424
300.441
300.458
300.475
300.492
300.509
300.527
300.545
300.563
300.58
300.598
300.616
300.634
300.652
300.67
300.688
300.706
300.724
300.742
300.76
300.778
300.795
300.813
300.83
300.847
300.864
300.881
300.898
300.915
300.931
300.947
300.963
300.979
300.994
301.01
301.025
301.04
301.054
300.002
300.005
300.009
300.013
300.017
300.021
300.025
300.03
300.035
300.04
300.046
300.051
300.057
300.064
300.07
300.077
300.084
300.092
300.1
300.108
300.117
300.126
300.135
300.144
300.154
300.165
300.175
300.186
300.198
300.209
300.221
300.234
300.246
300.259
300.273
300.286
300.3
300.314
300.329
300.343
300.358
300.373
300.388
300.404
300.42
300.435
300.451
300.468
300.484
300.5
300.517
300.533
300.55
300.566
300.583
300.6
300.616
300.633
300.649
300.666
300.683
300.699
300.715
300.732
300.748
300.764
300.78
300.795
300.811
300.826
300.842
300.857
300.872
300.887
300.901
300.916
300.93
300.944
300.958
300.971
300.985
300.002
300.005
300.009
300.012
300.016
300.02
300.025
300.029
300.034
300.039
300.044
300.05
300.055
300.061
300.068
300.074
300.081
300.089
300.096
300.104
300.112
300.121
300.13
300.139
300.148
300.158
300.168
300.179
300.189
300.2
300.212
300.224
300.235
300.248
300.26
300.273
300.286
300.299
300.313
300.326
300.34
300.354
300.369
300.383
300.398
300.412
300.427
300.442
300.457
300.472
300.487
300.503
300.518
300.533
300.549
300.564
300.579
300.594
300.61
300.625
300.64
300.655
300.67
300.685
300.699
300.714
300.729
300.743
300.757
300.771
300.785
300.799
300.813
300.826
300.84
300.853
300.866
300.878
300.891
300.904
300.916
300.002
300.005
300.008
300.012
300.016
300.02
300.024
300.028
300.033
300.037
300.042
300.048
300.053
300.059
300.065
300.072
300.078
300.085
300.092
300.1
300.108
300.116
300.124
300.133
300.142
300.151
300.161
300.17
300.181
300.191
300.202
300.213
300.224
300.235
300.247
300.259
300.271
300.283
300.296
300.309
300.322
300.335
300.348
300.361
300.375
300.388
300.402
300.416
300.43
300.444
300.458
300.471
300.485
300.5
300.514
300.528
300.541
300.555
300.569
300.583
300.597
300.611
300.624
300.638
300.651
300.664
300.678
300.691
300.704
300.716
300.729
300.742
300.754
300.766
300.778
300.79
300.802
300.814
300.825
300.836
300.848
300.002
300.005
300.008
300.011
300.015
300.019
300.023
300.027
300.031
300.036
300.041
300.046
300.051
300.057
300.062
300.068
300.075
300.081
300.088
300.095
300.102
300.11
300.118
300.126
300.135
300.143
300.152
300.162
300.171
300.181
300.191
300.201
300.212
300.222
300.233
300.244
300.255
300.267
300.279
300.29
300.302
300.314
300.326
300.339
300.351
300.364
300.376
300.389
300.401
300.414
300.427
300.44
300.453
300.465
300.478
300.491
300.503
300.516
300.529
300.541
300.554
300.566
300.579
300.591
300.603
300.615
300.627
300.639
300.65
300.662
300.674
300.685
300.696
300.707
300.718
300.729
300.739
300.75
300.76
300.77
300.781
300.001
300.004
300.008
300.011
300.014
300.018
300.022
300.026
300.03
300.034
300.039
300.044
300.049
300.054
300.059
300.065
300.071
300.077
300.083
300.09
300.097
300.104
300.112
300.119
300.127
300.135
300.144
300.152
300.161
300.17
300.18
300.189
300.199
300.209
300.219
300.229
300.239
300.25
300.261
300.271
300.282
300.293
300.305
300.316
300.327
300.339
300.35
300.361
300.373
300.385
300.396
300.408
300.419
300.431
300.443
300.454
300.466
300.477
300.488
300.5
300.511
300.522
300.533
300.544
300.555
300.566
300.577
300.588
300.598
300.609
300.619
300.629
300.639
300.649
300.659
300.669
300.678
300.688
300.697
300.706
300.715
300.001
300.004
300.007
300.01
300.014
300.017
300.021
300.024
300.028
300.032
300.037
300.041
300.046
300.051
300.056
300.061
300.067
300.073
300.079
300.085
300.092
300.098
300.105
300.112
300.12
300.127
300.135
300.143
300.151
300.16
300.168
300.177
300.186
300.195
300.204
300.213
300.223
300.233
300.242
300.252
300.262
300.272
300.282
300.293
300.303
300.313
300.324
300.334
300.345
300.355
300.366
300.376
300.386
300.397
300.407
300.418
300.428
300.438
300.449
300.459
300.469
300.479
300.489
300.499
300.509
300.518
300.528
300.538
300.547
300.556
300.566
300.575
300.584
300.593
300.601
300.61
300.619
300.627
300.636
300.644
300.652
300.001
300.004
300.007
300.01
300.013
300.016
300.019
300.023
300.027
300.031
300.035
300.039
300.043
300.048
300.053
300.058
300.063
300.068
300.074
300.08
300.086
300.092
300.098
300.105
300.112
300.119
300.126
300.133
300.141
300.149
300.156
300.164
300.173
300.181
300.189
300.198
300.207
300.215
300.224
300.233
300.242
300.251
300.261
300.27
300.279
300.288
300.298
300.307
300.317
300.326
300.335
300.345
300.354
300.364
300.373
300.382
300.391
300.401
300.41
300.419
300.428
300.437
300.446
300.455
300.464
300.472
300.481
300.489
300.498
300.506
300.514
300.523
300.531
300.539
300.546
300.554
300.562
300.569
300.577
300.584
300.591
300.001
300.004
300.006
300.009
300.012
300.015
300.018
300.022
300.025
300.029
300.032
300.036
300.041
300.045
300.049
300.054
300.059
300.064
300.069
300.074
300.08
300.086
300.092
300.098
300.104
300.11
300.117
300.124
300.131
300.138
300.145
300.152
300.16
300.167
300.175
300.183
300.19
300.198
300.206
300.214
300.223
300.231
300.239
300.247
300.256
300.264
300.273
300.281
300.289
300.298
300.306
300.315
300.323
300.332
300.34
300.348
300.356
300.365
300.373
300.381
300.389
300.397
300.405
300.413
300.421
300.428
300.436
300.444
300.451
300.458
300.466
300.473
300.48
300.487
300.494
300.501
300.508
300.515
300.521
300.528
300.534
300.001
300.004
300.006
300.009
300.011
300.014
300.017
300.02
300.023
300.027
300.03
300.034
300.038
300.042
300.046
300.05
300.055
300.059
300.064
300.069
300.074
300.08
300.085
300.091
300.096
300.102
300.108
300.114
300.121
300.127
300.134
300.14
300.147
300.154
300.161
300.168
300.175
300.182
300.189
300.197
300.204
300.211
300.219
300.226
300.234
300.241
300.249
300.256
300.264
300.271
300.279
300.286
300.294
300.301
300.309
300.316
300.324
300.331
300.338
300.345
300.352
300.36
300.367
300.374
300.381
300.387
300.394
300.401
300.408
300.414
300.421
300.427
300.433
300.44
300.446
300.452
300.458
300.464
300.47
300.475
300.481
300.001
300.003
300.006
300.008
300.011
300.013
300.016
300.019
300.022
300.025
300.028
300.032
300.035
300.039
300.043
300.047
300.051
300.055
300.06
300.064
300.069
300.074
300.079
300.084
300.089
300.095
300.1
300.106
300.111
300.117
300.123
300.129
300.135
300.141
300.148
300.154
300.16
300.167
300.173
300.18
300.187
300.193
300.2
300.207
300.213
300.22
300.227
300.233
300.24
300.247
300.254
300.26
300.267
300.274
300.28
300.287
300.293
300.3
300.306
300.313
300.319
300.325
300.332
300.338
300.344
300.35
300.356
300.362
300.368
300.374
300.38
300.385
300.391
300.396
300.402
300.407
300.413
300.418
300.423
300.428
300.433
300.001
300.003
300.005
300.008
300.01
300.012
300.015
300.018
300.021
300.023
300.027
300.03
300.033
300.036
300.04
300.044
300.048
300.051
300.056
300.06
300.064
300.069
300.073
300.078
300.083
300.088
300.093
300.098
300.103
300.108
300.114
300.119
300.125
300.13
300.136
300.142
300.148
300.153
300.159
300.165
300.171
300.177
300.183
300.189
300.195
300.201
300.207
300.213
300.219
300.225
300.231
300.237
300.243
300.249
300.255
300.261
300.267
300.273
300.279
300.284
300.29
300.296
300.301
300.307
300.312
300.318
300.323
300.328
300.334
300.339
300.344
300.349
300.354
300.359
300.364
300.369
300.373
300.378
300.383
300.387
300.392
300.001
300.003
300.005
300.007
300.009
300.012
300.014
300.017
300.019
300.022
300.025
300.028
300.031
300.034
300.038
300.041
300.045
300.048
300.052
300.056
300.06
300.064
300.068
300.073
300.077
300.082
300.086
300.091
300.096
300.101
300.106
300.111
300.116
300.121
300.126
300.131
300.137
300.142
300.147
300.153
300.158
300.164
300.169
300.175
300.18
300.186
300.191
300.197
300.202
300.208
300.213
300.219
300.224
300.229
300.235
300.24
300.245
300.251
300.256
300.261
300.266
300.271
300.276
300.281
300.286
300.291
300.296
300.301
300.305
300.31
300.315
300.319
300.324
300.328
300.333
300.337
300.341
300.345
300.35
300.354
300.358
300.001
300.003
300.005
300.007
300.009
300.011
300.013
300.016
300.018
300.021
300.024
300.027
300.03
300.033
300.036
300.039
300.042
300.046
300.049
300.053
300.057
300.061
300.065
300.069
300.073
300.077
300.082
300.086
300.091
300.095
300.1
300.105
300.109
300.114
300.119
300.124
300.129
300.134
300.139
300.144
300.149
300.154
300.159
300.164
300.169
300.174
300.179
300.184
300.189
300.195
300.2
300.205
300.21
300.215
300.22
300.224
300.229
300.234
300.239
300.244
300.249
300.253
300.258
300.262
300.267
300.272
300.276
300.28
300.285
300.289
300.293
300.298
300.302
300.306
300.31
300.314
300.318
300.322
300.325
300.329
300.333
300.001
300.003
300.005
300.007
300.009
300.011
300.013
300.015
300.018
300.02
300.023
300.026
300.029
300.032
300.035
300.038
300.041
300.045
300.048
300.052
300.055
300.059
300.063
300.067
300.071
300.075
300.079
300.083
300.088
300.092
300.097
300.101
300.106
300.11
300.115
300.12
300.124
300.129
300.134
300.139
300.144
300.148
300.153
300.158
300.163
300.168
300.173
300.178
300.183
300.187
300.192
300.197
300.202
300.207
300.211
300.216
300.221
300.225
300.23
300.234
300.239
300.243
300.248
300.252
300.257
300.261
300.265
300.269
300.273
300.278
300.282
300.286
300.29
300.294
300.297
300.301
300.305
300.309
300.312
300.316
300.319
302.732
302.853
302.954
303.042
303.121
303.193
303.258
303.317
303.373
303.423
303.471
303.514
303.555
303.593
303.628
303.661
303.692
303.721
303.749
303.776
303.801
303.827
303.852
303.878
303.905
303.932
303.959
303.985
304.012
304.038
304.063
304.089
304.114
304.139
304.164
304.188
304.212
304.236
304.26
304.283
304.306
304.33
304.353
304.375
304.398
304.42
304.442
304.464
304.486
304.508
304.529
304.551
304.572
304.593
304.613
304.634
304.654
304.674
304.694
304.714
304.734
304.753
304.772
304.791
304.81
304.829
304.848
304.866
304.884
304.902
304.92
304.937
304.954
304.972
304.988
305.005
305.022
305.038
305.054
305.07
305.086
305.101
305.117
305.132
305.147
305.161
305.176
305.19
305.204
305.218
305.231
305.244
305.258
305.27
305.283
305.295
305.307
305.319
305.331
305.342
305.353
305.364
305.374
305.384
305.394
305.404
305.413
305.422
305.431
305.439
305.447
305.455
305.462
305.469
305.475
305.481
305.487
305.493
305.498
305.502
305.506
305.51
305.513
305.516
305.518
305.519
305.52
305.521
305.521
305.52
305.519
305.516
305.513
305.51
305.505
305.499
305.493
305.485
305.476
305.466
305.455
305.442
305.428
305.412
305.393
305.373
305.351
305.326
305.298
305.267
305.232
305.194
305.151
305.102
305.047
304.986
304.923
304.849
304.744
304.587
304.345
302.666
302.774
302.871
302.957
303.036
303.108
303.173
303.234
303.29
303.342
303.391
303.436
303.478
303.518
303.555
303.589
303.622
303.653
303.683
303.711
303.738
303.765
303.792
303.819
303.847
303.874
303.901
303.928
303.955
303.981
304.007
304.033
304.059
304.084
304.109
304.134
304.159
304.183
304.207
304.231
304.254
304.278
304.301
304.324
304.347
304.369
304.392
304.414
304.436
304.458
304.48
304.501
304.523
304.544
304.565
304.585
304.606
304.626
304.646
304.666
304.686
304.706
304.725
304.744
304.763
304.782
304.801
304.819
304.838
304.856
304.874
304.891
304.909
304.926
304.943
304.96
304.976
304.993
305.009
305.025
305.041
305.057
305.072
305.087
305.102
305.117
305.132
305.146
305.16
305.174
305.188
305.201
305.214
305.227
305.24
305.252
305.264
305.276
305.288
305.299
305.31
305.321
305.332
305.342
305.352
305.362
305.371
305.38
305.389
305.397
305.405
305.413
305.42
305.427
305.434
305.44
305.446
305.451
305.456
305.461
305.465
305.469
305.472
305.474
305.477
305.478
305.479
305.48
305.48
305.479
305.478
305.475
305.472
305.469
305.464
305.458
305.452
305.444
305.435
305.425
305.414
305.401
305.387
305.37
305.352
305.332
305.309
305.284
305.256
305.225
305.19
305.151
305.107
305.058
305.002
304.94
304.873
304.794
304.684
304.523
304.279
302.609
302.704
302.793
302.876
302.953
303.023
303.089
303.15
303.207
303.26
303.309
303.356
303.399
303.44
303.478
303.514
303.549
303.581
303.613
303.643
303.672
303.7
303.728
303.756
303.784
303.812
303.84
303.867
303.895
303.921
303.948
303.974
304
304.026
304.052
304.077
304.102
304.126
304.151
304.175
304.199
304.222
304.246
304.269