/*--------------------------------*- C++ -*----------------------------------*\
| =========                 |                                                 |
| \\      /  F ield         | OpenFOAM: The Open Source CFD Toolbox           |
|  \\    /   O peration     | Version:  2112                                  |
|   \\  /    A nd           | Website:  www.openfoam.com                      |
|    \\/     M anipulation  |                                                 |
\*---------------------------------------------------------------------------*/
FoamFile
{
    version     2.0;
    format      ascii;
    arch        "LSB;label=32;scalar=64";
    class       volVectorField;
    location    "3";
    object      U;
}
// * * * * * * * * * * * * * * * * * * * * * * * * * * * * * * * * * * * * * //

dimensions      [0 1 -1 0 0 0 0];

internalField   nonuniform List<vector> 
12013
(
(0.100025 -6.9547e-06 0)
(0.100127 -1.28652e-05 0)
(0.100292 -1.82941e-05 0)
(0.100505 -2.3238e-05 0)
(0.100761 -2.78265e-05 0)
(0.101055 -3.21357e-05 0)
(0.101383 -3.62147e-05 0)
(0.101743 -4.01033e-05 0)
(0.102129 -4.38316e-05 0)
(0.102542 -4.74231e-05 0)
(0.102977 -5.08964e-05 0)
(0.103433 -5.42651e-05 0)
(0.103909 -5.75401e-05 0)
(0.104402 -6.07289e-05 0)
(0.104911 -6.38369e-05 0)
(0.105434 -6.68677e-05 0)
(0.105971 -6.98236e-05 0)
(0.106519 -7.27066e-05 0)
(0.107079 -7.55181e-05 0)
(0.107647 -7.82599e-05 0)
(0.108225 -8.09349e-05 0)
(0.108809 -8.35458e-05 0)
(0.109401 -8.60978e-05 0)
(0.109997 -8.8595e-05 0)
(0.110599 -9.10448e-05 0)
(0.111205 -9.34531e-05 0)
(0.111814 -9.58265e-05 0)
(0.112427 -9.81723e-05 0)
(0.113042 -0.000100496 0)
(0.113659 -0.000102803 0)
(0.114277 -0.000105097 0)
(0.114897 -0.00010738 0)
(0.115518 -0.000109653 0)
(0.11614 -0.000111913 0)
(0.116761 -0.000114157 0)
(0.117383 -0.000116379 0)
(0.118005 -0.000118569 0)
(0.118625 -0.000120718 0)
(0.119245 -0.000122811 0)
(0.119862 -0.000124833 0)
(0.120478 -0.000126767 0)
(0.121091 -0.000128592 0)
(0.1217 -0.000130284 0)
(0.122305 -0.00013182 0)
(0.122905 -0.00013317 0)
(0.123499 -0.000134304 0)
(0.124086 -0.000135186 0)
(0.124666 -0.000135779 0)
(0.125236 -0.000136039 0)
(0.125796 -0.000135918 0)
(0.126344 -0.000135361 0)
(0.12688 -0.000134307 0)
(0.1274 -0.000132686 0)
(0.127903 -0.000130414 0)
(0.128388 -0.0001274 0)
(0.128852 -0.000123533 0)
(0.129292 -0.000118683 0)
(0.129707 -0.000112697 0)
(0.130092 -0.000105392 0)
(0.130443 -9.65469e-05 0)
(0.130758 -8.58924e-05 0)
(0.131031 -7.30978e-05 0)
(0.131257 -5.77526e-05 0)
(0.131429 -3.93411e-05 0)
(0.131539 -1.72099e-05 0)
(0.131578 9.48654e-06 0)
(0.131534 4.18774e-05 0)
(0.131394 8.14801e-05 0)
(0.131139 0.000130357 0)
(0.130747 0.00019138 0)
(0.130188 0.000268654 0)
(0.129421 0.000368191 0)
(0.128391 0.000499057 0)
(0.127023 0.000675332 0)
(0.125204 0.000919574 0)
(0.12277 0.00126907 0)
(0.119469 0.00178747 0)
(0.114889 0.00258965 0)
(0.108356 0.00391774 0)
(0.098984 0.00646751 0)
(0.0882776 0.0134368 0)
(0.100023 -2.12435e-05 0)
(0.100125 -3.94517e-05 0)
(0.100289 -5.61261e-05 0)
(0.100502 -7.12994e-05 0)
(0.100757 -8.53829e-05 0)
(0.101051 -9.86077e-05 0)
(0.101378 -0.000111125 0)
(0.101737 -0.000123056 0)
(0.102123 -0.000134495 0)
(0.102535 -0.000145514 0)
(0.102969 -0.000156169 0)
(0.103425 -0.000166502 0)
(0.1039 -0.000176548 0)
(0.104392 -0.000186328 0)
(0.1049 -0.00019586 0)
(0.105423 -0.000205155 0)
(0.105958 -0.000214219 0)
(0.106506 -0.000223059 0)
(0.107064 -0.000231678 0)
(0.107632 -0.000240084 0)
(0.108208 -0.000248283 0)
(0.108791 -0.000256286 0)
(0.109381 -0.000264106 0)
(0.109977 -0.000271759 0)
(0.110577 -0.000279265 0)
(0.111182 -0.000286643 0)
(0.11179 -0.000293913 0)
(0.112401 -0.000301097 0)
(0.113014 -0.000308214 0)
(0.11363 -0.000315278 0)
(0.114246 -0.000322302 0)
(0.114865 -0.000329291 0)
(0.115484 -0.000336248 0)
(0.116103 -0.000343166 0)
(0.116723 -0.000350033 0)
(0.117343 -0.00035683 0)
(0.117962 -0.000363531 0)
(0.118581 -0.000370103 0)
(0.119198 -0.000376504 0)
(0.119813 -0.000382688 0)
(0.120427 -0.000388599 0)
(0.121037 -0.000394175 0)
(0.121644 -0.000399346 0)
(0.122246 -0.000404036 0)
(0.122844 -0.000408156 0)
(0.123435 -0.000411613 0)
(0.12402 -0.0004143 0)
(0.124597 -0.000416098 0)
(0.125164 -0.000416878 0)
(0.125721 -0.00041649 0)
(0.126267 -0.000414769 0)
(0.126799 -0.000411525 0)
(0.127317 -0.000406544 0)
(0.127818 -0.000399578 0)
(0.1283 -0.00039034 0)
(0.128761 -0.000378495 0)
(0.129199 -0.000363649 0)
(0.129611 -0.000345336 0)
(0.129994 -0.000323001 0)
(0.130345 -0.000295971 0)
(0.130659 -0.000263432 0)
(0.130931 -0.000224383 0)
(0.131158 -0.000177583 0)
(0.131331 -0.000121481 0)
(0.131444 -5.41079e-05 0)
(0.131488 2.70645e-05 0)
(0.131453 0.00012538 0)
(0.131324 0.000245308 0)
(0.131087 0.00039289 0)
(0.13072 0.000576469 0)
(0.130197 0.000807824 0)
(0.129484 0.00110397 0)
(0.128537 0.00149008 0)
(0.127295 0.00200432 0)
(0.125679 0.00270592 0)
(0.123579 0.00368862 0)
(0.12085 0.00510218 0)
(0.117296 0.00718624 0)
(0.112682 0.0103233 0)
(0.107036 0.0150377 0)
(0.102263 0.0214511 0)
(0.100021 -3.61392e-05 0)
(0.100122 -6.76973e-05 0)
(0.100285 -9.64154e-05 0)
(0.100496 -0.000122539 0)
(0.10075 -0.000146781 0)
(0.101043 -0.000169539 0)
(0.101369 -0.000191075 0)
(0.101726 -0.000211601 0)
(0.102111 -0.000231277 0)
(0.102522 -0.000250227 0)
(0.102955 -0.000268549 0)
(0.103409 -0.000286317 0)
(0.103882 -0.000303587 0)
(0.104372 -0.000320399 0)
(0.104879 -0.000336782 0)
(0.1054 -0.000352754 0)
(0.105934 -0.000368329 0)
(0.106479 -0.000383515 0)
(0.107035 -0.000398322 0)
(0.107601 -0.000412757 0)
(0.108175 -0.000426835 0)
(0.108756 -0.000440573 0)
(0.109343 -0.000453994 0)
(0.109936 -0.000467127 0)
(0.110534 -0.000480002 0)
(0.111136 -0.000492654 0)
(0.111741 -0.00050512 0)
(0.112349 -0.000517435 0)
(0.112959 -0.00052963 0)
(0.113571 -0.000541732 0)
(0.114185 -0.000553762 0)
(0.114799 -0.00056573 0)
(0.115415 -0.000577638 0)
(0.116031 -0.000589478 0)
(0.116647 -0.000601227 0)
(0.117262 -0.000612853 0)
(0.117878 -0.000624312 0)
(0.118492 -0.000635545 0)
(0.119105 -0.000646483 0)
(0.119715 -0.000657044 0)
(0.120324 -0.000667134 0)
(0.120929 -0.000676646 0)
(0.121531 -0.000685461 0)
(0.122129 -0.000693445 0)
(0.122721 -0.000700451 0)
(0.123307 -0.000706315 0)
(0.123886 -0.000710856 0)
(0.124458 -0.000713872 0)
(0.12502 -0.000715138 0)
(0.125571 -0.000714403 0)
(0.126111 -0.000711383 0)
(0.126638 -0.000705756 0)
(0.12715 -0.000697157 0)
(0.127645 -0.000685164 0)
(0.128122 -0.000669291 0)
(0.128578 -0.000648973 0)
(0.129011 -0.000623544 0)
(0.129419 -0.000592219 0)
(0.129798 -0.000554063 0)
(0.130145 -0.000507952 0)
(0.130456 -0.000452523 0)
(0.130727 -0.000386114 0)
(0.130953 -0.000306668 0)
(0.131129 -0.000211625 0)
(0.131247 -9.77607e-05 0)
(0.131299 3.90334e-05 0)
(0.131277 0.000204118 0)
(0.131168 0.000404576 0)
(0.13096 0.000649855 0)
(0.130635 0.000952772 0)
(0.130174 0.00133101 0)
(0.129552 0.00180941 0)
(0.128738 0.00242339 0)
(0.127698 0.00322427 0)
(0.126391 0.00428707 0)
(0.124775 0.00572162 0)
(0.122819 0.00768566 0)
(0.120524 0.0103946 0)
(0.117982 0.0141107 0)
(0.115558 0.0190072 0)
(0.114297 0.0244806 0)
(0.10002 -5.15293e-05 0)
(0.100119 -9.7541e-05 0)
(0.10028 -0.000139131 0)
(0.100489 -0.000176986 0)
(0.100741 -0.000212096 0)
(0.101032 -0.000245044 0)
(0.101356 -0.000276215 0)
(0.101711 -0.000305916 0)
(0.102094 -0.000334382 0)
(0.102502 -0.000361792 0)
(0.102933 -0.000388288 0)
(0.103385 -0.000413977 0)
(0.103856 -0.000438941 0)
(0.104344 -0.000463238 0)
(0.104848 -0.00048691 0)
(0.105366 -0.000509984 0)
(0.105897 -0.000532478 0)
(0.106439 -0.000554405 0)
(0.106992 -0.000575778 0)
(0.107554 -0.000596611 0)
(0.108125 -0.000616921 0)
(0.108702 -0.000636735 0)
(0.109286 -0.000656085 0)
(0.109875 -0.000675011 0)
(0.110469 -0.00069356 0)
(0.111067 -0.000711781 0)
(0.111667 -0.000729726 0)
(0.112271 -0.000747446 0)
(0.112876 -0.000764987 0)
(0.113483 -0.000782387 0)
(0.114092 -0.000799676 0)
(0.114701 -0.00081687 0)
(0.115311 -0.00083397 0)
(0.115921 -0.000850965 0)
(0.116531 -0.000867823 0)
(0.117141 -0.000884497 0)
(0.11775 -0.000900923 0)
(0.118358 -0.000917016 0)
(0.118964 -0.000932677 0)
(0.119568 -0.000947788 0)
(0.120169 -0.000962214 0)
(0.120768 -0.000975799 0)
(0.121362 -0.000988372 0)
(0.121952 -0.000999741 0)
(0.122536 -0.00100969 0)
(0.123115 -0.001018 0)
(0.123686 -0.00102439 0)
(0.124249 -0.00102858 0)
(0.124803 -0.00103024 0)
(0.125346 -0.00102903 0)
(0.125878 -0.00102453 0)
(0.126396 -0.00101628 0)
(0.126899 -0.00100377 0)
(0.127387 -0.000986402 0)
(0.127856 -0.00096348 0)
(0.128304 -0.000934209 0)
(0.12873 -0.000897656 0)
(0.129131 -0.000852719 0)
(0.129504 -0.000798094 0)
(0.129846 -0.000732217 0)
(0.130154 -0.000653205 0)
(0.130424 -0.000558771 0)
(0.130651 -0.000446107 0)
(0.13083 -0.000311742 0)
(0.130956 -0.000151341 0)
(0.131021 4.05461e-05 0)
(0.131019 0.000270902 0)
(0.130939 0.000548797 0)
(0.130773 0.000886105 0)
(0.130509 0.00129853 0)
(0.130134 0.00180705 0)
(0.129634 0.00244001 0)
(0.128996 0.00323595 0)
(0.128208 0.00424733 0)
(0.127265 0.00554518 0)
(0.126178 0.0072234 0)
(0.124988 0.00939919 0)
(0.123791 0.0121999 0)
(0.122774 0.0157144 0)
(0.12226 0.0198475 0)
(0.122692 0.0239416 0)
(0.100018 -6.74305e-05 0)
(0.100115 -0.000128945 0)
(0.100274 -0.000184267 0)
(0.10048 -0.000234674 0)
(0.10073 -0.000281405 0)
(0.101018 -0.000325238 0)
(0.10134 -0.000366695 0)
(0.101692 -0.000406183 0)
(0.102072 -0.000444017 0)
(0.102477 -0.000480438 0)
(0.102905 -0.000515634 0)
(0.103354 -0.000549748 0)
(0.103821 -0.00058289 0)
(0.104306 -0.000615138 0)
(0.104806 -0.000646547 0)
(0.10532 -0.000677153 0)
(0.105847 -0.00070698 0)
(0.106386 -0.000736046 0)
(0.106935 -0.000764368 0)
(0.107492 -0.000791962 0)
(0.108058 -0.000818854 0)
(0.108631 -0.000845077 0)
(0.10921 -0.000870674 0)
(0.109794 -0.000895699 0)
(0.110382 -0.000920212 0)
(0.110974 -0.000944279 0)
(0.111569 -0.000967968 0)
(0.112166 -0.000991347 0)
(0.112765 -0.00101448 0)
(0.113366 -0.00103741 0)
(0.113967 -0.00106018 0)
(0.11457 -0.00108281 0)
(0.115172 -0.00110531 0)
(0.115775 -0.00112766 0)
(0.116377 -0.00114981 0)
(0.116979 -0.00117171 0)
(0.11758 -0.00119327 0)
(0.118179 -0.00121438 0)
(0.118776 -0.0012349 0)
(0.119371 -0.00125468 0)
(0.119963 -0.00127354 0)
(0.120552 -0.00129128 0)
(0.121136 -0.00130767 0)
(0.121716 -0.00132246 0)
(0.12229 -0.00133536 0)
(0.122858 -0.00134607 0)
(0.123419 -0.00135425 0)
(0.123971 -0.00135952 0)
(0.124514 -0.00136145 0)
(0.125047 -0.00135958 0)
(0.125568 -0.00135337 0)
(0.126075 -0.00134224 0)
(0.126568 -0.00132551 0)
(0.127045 -0.00130241 0)
(0.127504 -0.00127205 0)
(0.127943 -0.00123341 0)
(0.12836 -0.00118529 0)
(0.128752 -0.0011263 0)
(0.129119 -0.00105479 0)
(0.129455 -0.000968793 0)
(0.12976 -0.000865964 0)
(0.130028 -0.00074347 0)
(0.130257 -0.000597871 0)
(0.130442 -0.000424958 0)
(0.130579 -0.000219539 0)
(0.130663 2.48195e-05 0)
(0.130687 0.000316126 0)
(0.130647 0.000664591 0)
(0.130537 0.00108324 0)
(0.130349 0.00158874 0)
(0.130079 0.0022025 0)
(0.129724 0.00295206 0)
(0.129284 0.0038727 0)
(0.128766 0.00500908 0)
(0.128188 0.00641622 0)
(0.127591 0.00815831 0)
(0.127042 0.0103017 0)
(0.126655 0.0128949 0)
(0.126592 0.0159231 0)
(0.12706 0.0192168 0)
(0.12822 0.0223084 0)
(0.100016 -8.38569e-05 0)
(0.100111 -0.000161874 0)
(0.100267 -0.00023181 0)
(0.10047 -0.000295619 0)
(0.100717 -0.000354761 0)
(0.101001 -0.00041021 0)
(0.10132 -0.000462634 0)
(0.101669 -0.00051255 0)
(0.102045 -0.000560357 0)
(0.102447 -0.000606362 0)
(0.102871 -0.000650803 0)
(0.103315 -0.000693864 0)
(0.103779 -0.000735682 0)
(0.104259 -0.000776356 0)
(0.104754 -0.000815957 0)
(0.105264 -0.000854531 0)
(0.105786 -0.000892109 0)
(0.106319 -0.000928712 0)
(0.106863 -0.000964361 0)
(0.107415 -0.000999078 0)
(0.107975 -0.00103289 0)
(0.108541 -0.00106585 0)
(0.109114 -0.001098 0)
(0.109691 -0.00112941 0)
(0.110273 -0.00116016 0)
(0.110857 -0.00119033 0)
(0.111445 -0.00122001 0)
(0.112035 -0.00124927 0)
(0.112626 -0.00127821 0)
(0.113218 -0.00130687 0)
(0.113811 -0.00133531 0)
(0.114405 -0.00136357 0)
(0.114999 -0.00139163 0)
(0.115592 -0.00141948 0)
(0.116185 -0.00144707 0)
(0.116776 -0.00147432 0)
(0.117366 -0.00150112 0)
(0.117955 -0.00152734 0)
(0.118541 -0.0015528 0)
(0.119125 -0.00157732 0)
(0.119706 -0.00160066 0)
(0.120282 -0.00162258 0)
(0.120855 -0.00164278 0)
(0.121423 -0.00166096 0)
(0.121984 -0.00167676 0)
(0.122539 -0.00168979 0)
(0.123087 -0.00169964 0)
(0.123626 -0.00170583 0)
(0.124156 -0.00170785 0)
(0.124676 -0.0017051 0)
(0.125183 -0.00169695 0)
(0.125678 -0.00168267 0)
(0.126158 -0.00166142 0)
(0.126623 -0.00163227 0)
(0.127069 -0.00159416 0)
(0.127497 -0.00154585 0)
(0.127904 -0.00148591 0)
(0.128288 -0.00141267 0)
(0.128646 -0.0013242 0)
(0.128977 -0.00121819 0)
(0.129278 -0.00109192 0)
(0.129546 -0.00094215 0)
(0.129779 -0.000764971 0)
(0.129973 -0.000555682 0)
(0.130125 -0.000308577 0)
(0.130233 -1.67173e-05 0)
(0.130291 0.000328272 0)
(0.130299 0.000736758 0)
(0.130253 0.00122158 0)
(0.130154 0.00179851 0)
(0.130001 0.00248689 0)
(0.129799 0.00331018 0)
(0.129559 0.00429638 0)
(0.1293 0.00547793 0)
(0.12905 0.00689038 0)
(0.128856 0.00856866 0)
(0.128788 0.0105387 0)
(0.128938 0.0128013 0)
(0.129418 0.015303 0)
(0.130337 0.0178943 0)
(0.131743 0.0202876 0)
(0.100014 -0.000100821 0)
(0.100107 -0.000196298 0)
(0.10026 -0.000281744 0)
(0.100459 -0.00035982 0)
(0.100702 -0.000432191 0)
(0.100983 -0.000500019 0)
(0.101297 -0.000564122 0)
(0.101642 -0.000625134 0)
(0.102014 -0.000683543 0)
(0.102411 -0.000739727 0)
(0.10283 -0.000793977 0)
(0.10327 -0.000846519 0)
(0.103728 -0.000897521 0)
(0.104203 -0.000947107 0)
(0.104693 -0.000995362 0)
(0.105196 -0.00104234 0)
(0.105712 -0.00108809 0)
(0.106239 -0.00113262 0)
(0.106776 -0.00117598 0)
(0.107321 -0.00121817 0)
(0.107874 -0.00125924 0)
(0.108434 -0.00129924 0)
(0.108998 -0.00133824 0)
(0.109568 -0.00137631 0)
(0.110141 -0.00141354 0)
(0.110717 -0.00145005 0)
(0.111296 -0.00148592 0)
(0.111877 -0.00152127 0)
(0.112459 -0.00155618 0)
(0.113041 -0.00159074 0)
(0.113624 -0.00162501 0)
(0.114207 -0.00165901 0)
(0.11479 -0.00169275 0)
(0.115372 -0.00172621 0)
(0.115953 -0.00175932 0)
(0.116533 -0.001792 0)
(0.117111 -0.0018241 0)
(0.117687 -0.00185547 0)
(0.11826 -0.00188589 0)
(0.118831 -0.00191515 0)
(0.119398 -0.00194295 0)
(0.119961 -0.001969 0)
(0.120519 -0.00199295 0)
(0.121072 -0.00201443 0)
(0.121619 -0.002033 0)
(0.12216 -0.00204822 0)
(0.122692 -0.00205958 0)
(0.123216 -0.0020665 0)
(0.123731 -0.00206838 0)
(0.124235 -0.00206453 0)
(0.124728 -0.00205419 0)
(0.125208 -0.00203649 0)
(0.125673 -0.00201047 0)
(0.126124 -0.00197506 0)
(0.126557 -0.001929 0)
(0.126973 -0.0018709 0)
(0.127368 -0.00179911 0)
(0.127742 -0.00171177 0)
(0.128093 -0.0016067 0)
(0.128418 -0.00148137 0)
(0.128717 -0.00133279 0)
(0.128986 -0.00115746 0)
(0.129225 -0.000951246 0)
(0.129431 -0.000709244 0)
(0.129602 -0.000425626 0)
(0.129737 -9.34793e-05 0)
(0.129835 0.000295299 0)
(0.129897 0.000750304 0)
(0.129922 0.00128302 0)
(0.129914 0.00190692 0)
(0.12988 0.00263759 0)
(0.129828 0.00349268 0)
(0.129774 0.00449148 0)
(0.12974 0.00565388 0)
(0.129758 0.00699821 0)
(0.12987 0.00853738 0)
(0.130131 0.0102724 0)
(0.130606 0.012182 0)
(0.131361 0.0142091 0)
(0.132448 0.0162451 0)
(0.133869 0.0181233 0)
(0.100012 -0.000118341 0)
(0.100104 -0.000232197 0)
(0.100252 -0.000334055 0)
(0.100448 -0.000427271 0)
(0.100686 -0.000513708 0)
(0.100962 -0.0005947 0)
(0.101272 -0.000671219 0)
(0.101611 -0.000744018 0)
(0.101978 -0.00081368 0)
(0.10237 -0.000880654 0)
(0.102783 -0.000945292 0)
(0.103217 -0.00100786 0)
(0.103669 -0.00106857 0)
(0.104138 -0.00112756 0)
(0.104621 -0.00118493 0)
(0.105118 -0.00124076 0)
(0.105627 -0.00129509 0)
(0.106146 -0.00134795 0)
(0.106675 -0.00139937 0)
(0.107213 -0.00144938 0)
(0.107757 -0.00149802 0)
(0.108308 -0.00154536 0)
(0.108864 -0.00159147 0)
(0.109424 -0.00163644 0)
(0.109988 -0.00168039 0)
(0.110554 -0.00172343 0)
(0.111122 -0.00176568 0)
(0.111692 -0.00180727 0)
(0.112263 -0.00184831 0)
(0.112835 -0.00188888 0)
(0.113406 -0.00192907 0)
(0.113977 -0.0019689 0)
(0.114547 -0.00200839 0)
(0.115116 -0.0020475 0)
(0.115684 -0.00208617 0)
(0.11625 -0.00212428 0)
(0.116814 -0.00216167 0)
(0.117376 -0.00219816 0)
(0.117934 -0.0022335 0)
(0.11849 -0.00226742 0)
(0.119041 -0.0022996 0)
(0.119588 -0.00232968 0)
(0.12013 -0.00235725 0)
(0.120667 -0.00238187 0)
(0.121197 -0.00240305 0)
(0.12172 -0.00242026 0)
(0.122236 -0.00243291 0)
(0.122743 -0.00244034 0)
(0.123241 -0.00244186 0)
(0.123728 -0.00243667 0)
(0.124204 -0.0024239 0)
(0.124667 -0.00240258 0)
(0.125117 -0.00237163 0)
(0.125552 -0.00232984 0)
(0.125971 -0.00227583 0)
(0.126374 -0.00220804 0)
(0.126757 -0.00212472 0)
(0.127121 -0.00202382 0)
(0.127464 -0.00190305 0)
(0.127784 -0.00175972 0)
(0.128081 -0.00159075 0)
(0.128354 -0.00139259 0)
(0.1286 -0.00116109 0)
(0.12882 -0.00089146 0)
(0.129013 -0.000578148 0)
(0.12918 -0.000214753 0)
(0.12932 0.000206005 0)
(0.129438 0.000692246 0)
(0.129535 0.00125329 0)
(0.129617 0.0018995 0)
(0.129694 0.00264205 0)
(0.129777 0.00349249 0)
(0.129882 0.00446199 0)
(0.130031 0.00556006 0)
(0.130252 0.00679255 0)
(0.130577 0.00815878 0)
(0.131045 0.00964749 0)
(0.131696 0.0112319 0)
(0.132565 0.012864 0)
(0.133674 0.0144716 0)
(0.13501 0.0159607 0)
(0.100011 -0.000136439 0)
(0.1001 -0.000269558 0)
(0.100245 -0.000388727 0)
(0.100436 -0.000497955 0)
(0.100669 -0.000599306 0)
(0.10094 -0.000694264 0)
(0.101244 -0.000783953 0)
(0.101578 -0.000869249 0)
(0.101939 -0.000950829 0)
(0.102324 -0.00102922 0)
(0.102731 -0.00110484 0)
(0.103158 -0.00117799 0)
(0.103603 -0.00124893 0)
(0.104064 -0.00131781 0)
(0.10454 -0.00138477 0)
(0.105029 -0.00144988 0)
(0.105529 -0.0015132 0)
(0.10604 -0.00157477 0)
(0.10656 -0.00163461 0)
(0.107088 -0.00169276 0)
(0.107623 -0.00174928 0)
(0.108164 -0.00180423 0)
(0.10871 -0.0018577 0)
(0.109259 -0.0019098 0)
(0.109812 -0.00196065 0)
(0.110367 -0.00201039 0)
(0.110924 -0.00205917 0)
(0.111482 -0.00210711 0)
(0.11204 -0.00215436 0)
(0.112599 -0.00220102 0)
(0.113157 -0.00224717 0)
(0.113714 -0.00229286 0)
(0.11427 -0.0023381 0)
(0.114825 -0.00238285 0)
(0.115378 -0.00242704 0)
(0.115928 -0.00247052 0)
(0.116476 -0.00251314 0)
(0.117022 -0.00255465 0)
(0.117564 -0.00259479 0)
(0.118102 -0.00263324 0)
(0.118636 -0.00266964 0)
(0.119165 -0.00270356 0)
(0.119689 -0.00273455 0)
(0.120208 -0.00276211 0)
(0.12072 -0.00278568 0)
(0.121224 -0.00280464 0)
(0.121721 -0.00281834 0)
(0.12221 -0.00282604 0)
(0.122689 -0.00282696 0)
(0.123157 -0.00282022 0)
(0.123615 -0.00280484 0)
(0.124061 -0.00277978 0)
(0.124494 -0.00274385 0)
(0.124913 -0.00269574 0)
(0.125317 -0.00263398 0)
(0.125705 -0.00255693 0)
(0.126077 -0.00246272 0)
(0.12643 -0.00234929 0)
(0.126766 -0.00221426 0)
(0.127082 -0.00205495 0)
(0.127378 -0.00186835 0)
(0.127654 -0.00165102 0)
(0.12791 -0.00139905 0)
(0.128146 -0.00110806 0)
(0.128362 -0.000773118 0)
(0.128561 -0.000388702 0)
(0.128744 5.1274e-05 0)
(0.128916 0.000553072 0)
(0.129081 0.00112345 0)
(0.129246 0.00176947 0)
(0.12942 0.00249807 0)
(0.129616 0.00331546 0)
(0.129848 0.0042264 0)
(0.130135 0.00523312 0)
(0.130497 0.00633384 0)
(0.130957 0.00752113 0)
(0.131541 0.00877983 0)
(0.132271 0.0100852 0)
(0.133164 0.0114013 0)
(0.134225 0.0126822 0)
(0.135441 0.013875 0)
(0.100009 -0.000155135 0)
(0.100096 -0.000308366 0)
(0.100237 -0.000445743 0)
(0.100423 -0.00057185 0)
(0.100651 -0.00068896 0)
(0.100916 -0.000798694 0)
(0.101214 -0.000902319 0)
(0.101541 -0.00100083 0)
(0.101895 -0.00109501 0)
(0.102273 -0.00118545 0)
(0.102673 -0.00127265 0)
(0.103092 -0.00135695 0)
(0.103529 -0.00143864 0)
(0.103982 -0.00151791 0)
(0.104449 -0.00159492 0)
(0.104929 -0.00166974 0)
(0.10542 -0.00174245 0)
(0.105921 -0.00181309 0)
(0.106431 -0.00188169 0)
(0.106949 -0.0019483 0)
(0.107473 -0.00201297 0)
(0.108002 -0.00207577 0)
(0.108537 -0.00213682 0)
(0.109074 -0.00219623 0)
(0.109615 -0.00225414 0)
(0.110157 -0.00231071 0)
(0.110701 -0.00236611 0)
(0.111245 -0.00242048 0)
(0.111789 -0.00247399 0)
(0.112333 -0.00252675 0)
(0.112877 -0.00257886 0)
(0.113419 -0.00263037 0)
(0.113959 -0.0026813 0)
(0.114498 -0.00273161 0)
(0.115034 -0.0027812 0)
(0.115568 -0.00282993 0)
(0.116098 -0.00287761 0)
(0.116626 -0.00292398 0)
(0.117149 -0.00296873 0)
(0.117669 -0.00301151 0)
(0.118184 -0.00305189 0)
(0.118694 -0.00308942 0)
(0.119198 -0.00312358 0)
(0.119697 -0.00315381 0)
(0.120188 -0.00317949 0)
(0.120673 -0.00319994 0)
(0.12115 -0.00321443 0)
(0.121618 -0.00322216 0)
(0.122077 -0.00322226 0)
(0.122526 -0.0032138 0)
(0.122965 -0.00319572 0)
(0.123392 -0.0031669 0)
(0.123807 -0.0031261 0)
(0.124209 -0.00307193 0)
(0.124597 -0.0030029 0)
(0.124971 -0.0029173 0)
(0.125331 -0.0028133 0)
(0.125675 -0.00268881 0)
(0.126003 -0.00254154 0)
(0.126315 -0.00236893 0)
(0.126612 -0.00216817 0)
(0.126892 -0.00193612 0)
(0.127158 -0.00166933 0)
(0.12741 -0.00136404 0)
(0.127649 -0.00101617 0)
(0.127879 -0.000621352 0)
(0.128102 -0.000174967 0)
(0.128324 0.0003276 0)
(0.128548 0.000890436 0)
(0.128783 0.00151758 0)
(0.129037 0.00221242 0)
(0.129321 0.00297714 0)
(0.129647 0.00381209 0)
(0.130028 0.00471513 0)
(0.13048 0.00568073 0)
(0.131017 0.00669918 0)
(0.131655 0.00775581 0)
(0.132404 0.00883058 0)
(0.13327 0.00989832 0)
(0.134254 0.01093 0)
(0.135343 0.011896 0)
(0.100006 -0.000174447 0)
(0.100092 -0.000348606 0)
(0.100229 -0.000505073 0)
(0.10041 -0.000648913 0)
(0.100632 -0.000782623 0)
(0.100891 -0.000907942 0)
(0.101182 -0.00102627 0)
(0.101502 -0.00113872 0)
(0.101848 -0.00124617 0)
(0.102218 -0.00134931 0)
(0.10261 -0.00144868 0)
(0.10302 -0.00154469 0)
(0.103448 -0.00163765 0)
(0.103891 -0.0017278 0)
(0.104348 -0.0018153 0)
(0.104818 -0.00190026 0)
(0.105299 -0.00198274 0)
(0.105789 -0.0020628 0)
(0.106287 -0.00214048 0)
(0.106793 -0.00221582 0)
(0.107305 -0.00228889 0)
(0.107823 -0.00235978 0)
(0.108344 -0.00242859 0)
(0.108868 -0.00249545 0)
(0.109395 -0.00256054 0)
(0.109923 -0.00262403 0)
(0.110452 -0.00268609 0)
(0.110981 -0.00274691 0)
(0.11151 -0.00280666 0)
(0.112039 -0.00286548 0)
(0.112566 -0.00292347 0)
(0.113091 -0.00298071 0)
(0.113614 -0.00303719 0)
(0.114135 -0.0030929 0)
(0.114653 -0.00314772 0)
(0.115168 -0.0032015 0)
(0.11568 -0.00325402 0)
(0.116188 -0.003305 0)
(0.116691 -0.0033541 0)
(0.117191 -0.00340091 0)
(0.117685 -0.00344499 0)
(0.118174 -0.00348582 0)
(0.118658 -0.00352284 0)
(0.119135 -0.00355543 0)
(0.119605 -0.00358292 0)
(0.120068 -0.00360457 0)
(0.120524 -0.00361958 0)
(0.12097 -0.00362711 0)
(0.121408 -0.00362624 0)
(0.121837 -0.00361595 0)
(0.122255 -0.00359517 0)
(0.122663 -0.00356272 0)
(0.123059 -0.00351733 0)
(0.123444 -0.00345761 0)
(0.123816 -0.00338205 0)
(0.124176 -0.003289 0)
(0.124524 -0.00317666 0)
(0.124858 -0.00304306 0)
(0.125179 -0.00288608 0)
(0.125488 -0.0027034 0)
(0.125785 -0.00249253 0)
(0.12607 -0.00225076 0)
(0.126345 -0.00197526 0)
(0.126612 -0.00166302 0)
(0.126872 -0.00131095 0)
(0.12713 -0.000915887 0)
(0.127387 -0.000474733 0)
(0.12765 1.55254e-05 0)
(0.127924 0.00055705 0)
(0.128214 0.00115124 0)
(0.128528 0.00179883 0)
(0.128875 0.00249931 0)
(0.129263 0.00325048 0)
(0.129703 0.00404806 0)
(0.130204 0.0048853 0)
(0.130775 0.0057527 0)
(0.131424 0.0066379 0)
(0.132156 0.0075258 0)
(0.132971 0.00839922 0)
(0.133868 0.00924004 0)
(0.134836 0.0100313 0)
(0.100004 -0.000194384 0)
(0.100088 -0.000390253 0)
(0.100221 -0.000566672 0)
(0.100397 -0.000729086 0)
(0.100612 -0.000880219 0)
(0.100864 -0.00102192 0)
(0.101148 -0.00115571 0)
(0.10146 -0.00128281 0)
(0.101798 -0.00140422 0)
(0.102159 -0.00152069 0)
(0.102541 -0.00163282 0)
(0.102942 -0.00174108 0)
(0.103359 -0.00184583 0)
(0.103792 -0.00194733 0)
(0.104238 -0.00204576 0)
(0.104696 -0.00214124 0)
(0.105165 -0.00223386 0)
(0.105643 -0.00232367 0)
(0.106129 -0.00241072 0)
(0.106622 -0.00249505 0)
(0.107121 -0.00257674 0)
(0.107624 -0.00265588 0)
(0.108131 -0.00273259 0)
(0.108641 -0.00280702 0)
(0.109152 -0.00287936 0)
(0.109665 -0.00294979 0)
(0.110178 -0.00301851 0)
(0.110691 -0.00308574 0)
(0.111203 -0.00315166 0)
(0.111714 -0.00321643 0)
(0.112223 -0.00328016 0)
(0.11273 -0.00334294 0)
(0.113235 -0.00340479 0)
(0.113736 -0.00346566 0)
(0.114235 -0.00352546 0)
(0.11473 -0.003584 0)
(0.115221 -0.00364106 0)
(0.115708 -0.00369632 0)
(0.11619 -0.00374943 0)
(0.116668 -0.00379993 0)
(0.11714 -0.00384735 0)
(0.117607 -0.00389113 0)
(0.118068 -0.00393065 0)
(0.118523 -0.00396526 0)
(0.11897 -0.00399422 0)
(0.119411 -0.00401677 0)
(0.119844 -0.00403207 0)
(0.120268 -0.00403921 0)
(0.120684 -0.00403723 0)
(0.121091 -0.00402512 0)
(0.121489 -0.00400176 0)
(0.121876 -0.00396597 0)
(0.122254 -0.00391649 0)
(0.122621 -0.00385195 0)
(0.122977 -0.00377091 0)
(0.123323 -0.0036718 0)
(0.123658 -0.00355295 0)
(0.123982 -0.00341259 0)
(0.124297 -0.00324883 0)
(0.124601 -0.00305968 0)
(0.124898 -0.00284306 0)
(0.125187 -0.00259682 0)
(0.12547 -0.00231877 0)
(0.125749 -0.00200673 0)
(0.126027 -0.00165856 0)
(0.126307 -0.00127231 0)
(0.126592 -0.000846205 0)
(0.126887 -0.000378772 0)
(0.127197 0.000131097 0)
(0.127526 0.000682918 0)
(0.127881 0.00127552 0)
(0.128267 0.00190684 0)
(0.128692 0.00257346 0)
(0.129161 0.0032705 0)
(0.129681 0.00399142 0)
(0.130256 0.00472802 0)
(0.13089 0.00547063 0)
(0.131584 0.00620833 0)
(0.132337 0.00692957 0)
(0.133146 0.00762302 0)
(0.134003 0.00827884 0)
(0.100002 -0.000214944 0)
(0.100084 -0.00043327 0)
(0.100213 -0.000630472 0)
(0.100383 -0.000812274 0)
(0.100592 -0.000981629 0)
(0.100836 -0.00114049 0)
(0.101111 -0.00129048 0)
(0.101415 -0.00143294 0)
(0.101743 -0.00156896 0)
(0.102095 -0.00169937 0)
(0.102467 -0.00182484 0)
(0.102857 -0.00194589 0)
(0.103263 -0.00206292 0)
(0.103684 -0.00217621 0)
(0.104118 -0.00228598 0)
(0.104564 -0.00239237 0)
(0.105019 -0.00249545 0)
(0.105484 -0.0025953 0)
(0.105956 -0.00269197 0)
(0.106435 -0.0027855 0)
(0.106918 -0.00287599 0)
(0.107407 -0.00296352 0)
(0.107898 -0.00304823 0)
(0.108391 -0.00313028 0)
(0.108886 -0.00320988 0)
(0.109382 -0.00328723 0)
(0.109878 -0.00336256 0)
(0.110373 -0.00343609 0)
(0.110867 -0.00350803 0)
(0.111359 -0.00357857 0)
(0.111849 -0.00364783 0)
(0.112336 -0.00371591 0)
(0.11282 -0.00378284 0)
(0.113301 -0.00384857 0)
(0.113779 -0.003913 0)
(0.114252 -0.00397595 0)
(0.114721 -0.00403716 0)
(0.115186 -0.00409632 0)
(0.115646 -0.00415302 0)
(0.1161 -0.00420681 0)
(0.11655 -0.00425715 0)
(0.116993 -0.00430345 0)
(0.11743 -0.00434509 0)
(0.117861 -0.00438134 0)
(0.118285 -0.00441145 0)
(0.118702 -0.00443461 0)
(0.119111 -0.00444996 0)
(0.119512 -0.00445658 0)
(0.119906 -0.00445348 0)
(0.120291 -0.00443963 0)
(0.120667 -0.00441395 0)
(0.121034 -0.00437528 0)
(0.121392 -0.0043224 0)
(0.121741 -0.00425401 0)
(0.122081 -0.00416878 0)
(0.122412 -0.00406528 0)
(0.122734 -0.00394204 0)
(0.123049 -0.00379753 0)
(0.123356 -0.00363015 0)
(0.123656 -0.00343831 0)
(0.123951 -0.00322039 0)
(0.124241 -0.0029748 0)
(0.12453 -0.00270001 0)
(0.124818 -0.00239461 0)
(0.125108 -0.00205737 0)
(0.125404 -0.00168731 0)
(0.125708 -0.00128377 0)
(0.126025 -0.000846487 0)
(0.126357 -0.000375589 0)
(0.12671 0.000128364 0)
(0.127088 0.000662964 0)
(0.127495 0.00122512 0)
(0.127934 0.00181111 0)
(0.128411 0.00241627 0)
(0.128927 0.00303492 0)
(0.129486 0.00366051 0)
(0.130088 0.00428577 0)
(0.130733 0.00490299 0)
(0.13142 0.00550447 0)
(0.132145 0.00608306 0)
(0.132903 0.00663301 0)
(0.0999992 -0.000236112 0)
(0.10008 -0.000477598 0)
(0.100204 -0.000696371 0)
(0.100368 -0.000898343 0)
(0.10057 -0.00108668 0)
(0.100806 -0.00126344 0)
(0.101073 -0.00143035 0)
(0.101367 -0.00158885 0)
(0.101685 -0.0017401 0)
(0.102026 -0.00188505 0)
(0.102387 -0.0020244 0)
(0.102765 -0.00215874 0)
(0.103159 -0.00228851 0)
(0.103567 -0.00241402 0)
(0.103988 -0.00253551 0)
(0.104419 -0.00265312 0)
(0.104861 -0.00276696 0)
(0.105311 -0.00287711 0)
(0.105767 -0.0029836 0)
(0.10623 -0.00308651 0)
(0.106698 -0.00318591 0)
(0.107169 -0.00328191 0)
(0.107643 -0.00337466 0)
(0.108119 -0.00346433 0)
(0.108596 -0.00355114 0)
(0.109073 -0.00363532 0)
(0.10955 -0.00371712 0)
(0.110026 -0.00379679 0)
(0.1105 -0.00387454 0)
(0.110972 -0.00395059 0)
(0.111441 -0.00402509 0)
(0.111907 -0.00409814 0)
(0.11237 -0.00416978 0)
(0.112829 -0.00423999 0)
(0.113283 -0.00430864 0)
(0.113734 -0.00437556 0)
(0.11418 -0.00444048 0)
(0.114621 -0.00450306 0)
(0.115057 -0.00456288 0)
(0.115487 -0.00461947 0)
(0.115912 -0.00467227 0)
(0.116331 -0.00472066 0)
(0.116743 -0.00476398 0)
(0.117149 -0.00480149 0)
(0.117548 -0.00483241 0)
(0.117941 -0.00485593 0)
(0.118326 -0.00487115 0)
(0.118703 -0.00487716 0)
(0.119073 -0.00487299 0)
(0.119435 -0.00485764 0)
(0.11979 -0.00483003 0)
(0.120136 -0.00478909 0)
(0.120474 -0.00473367 0)
(0.120805 -0.0046626 0)
(0.121128 -0.00457467 0)
(0.121444 -0.00446866 0)
(0.121754 -0.0043433 0)
(0.122057 -0.00419736 0)
(0.122355 -0.00402959 0)
(0.122649 -0.00383878 0)
(0.122941 -0.00362377 0)
(0.12323 -0.00338352 0)
(0.123521 -0.0031171 0)
(0.123813 -0.00282378 0)
(0.124111 -0.00250305 0)
(0.124415 -0.00215469 0)
(0.124729 -0.00177886 0)
(0.125057 -0.0013761 0)
(0.1254 -0.000947371 0)
(0.125762 -0.00049402 0)
(0.126147 -1.76949e-05 0)
(0.126558 0.00047856 0)
(0.126995 0.00099055 0)
(0.127462 0.00151413 0)
(0.12796 0.00204467 0)
(0.128489 0.00257717 0)
(0.129051 0.00310632 0)
(0.129642 0.00362676 0)
(0.130263 0.00413334 0)
(0.13091 0.00462151 0)
(0.131579 0.0050879 0)
(0.0999964 -0.000257857 0)
(0.100075 -0.000523156 0)
(0.100195 -0.000764232 0)
(0.100353 -0.000987106 0)
(0.100547 -0.00119515 0)
(0.100775 -0.00139051 0)
(0.101032 -0.001575 0)
(0.101316 -0.00175016 0)
(0.101624 -0.00191725 0)
(0.101952 -0.00207727 0)
(0.102301 -0.00223102 0)
(0.102666 -0.00237911 0)
(0.103046 -0.00252203 0)
(0.10344 -0.00266013 0)
(0.103846 -0.00279366 0)
(0.104263 -0.00292279 0)
(0.104689 -0.00304763 0)
(0.105122 -0.00316826 0)
(0.105562 -0.00328474 0)
(0.106008 -0.00339713 0)
(0.106458 -0.00350551 0)
(0.106911 -0.00361 0)
(0.107366 -0.00371076 0)
(0.107823 -0.00380798 0)
(0.108281 -0.00390189 0)
(0.108738 -0.00399274 0)
(0.109194 -0.0040808 0)
(0.109649 -0.00416634 0)
(0.110102 -0.00424962 0)
(0.110552 -0.00433085 0)
(0.110998 -0.00441021 0)
(0.111442 -0.00448782 0)