/*--------------------------------*- C++ -*----------------------------------*\
| =========                 |                                                 |
| \\      /  F ield         | OpenFOAM: The Open Source CFD Toolbox           |
|  \\    /   O peration     | Version:  2112                                  |
|   \\  /    A nd           | Website:  www.openfoam.com                      |
|    \\/     M anipulation  |                                                 |
\*---------------------------------------------------------------------------*/
FoamFile
{
    version     2.0;
    format      ascii;
    arch        "LSB;label=32;scalar=64";
    class       volVectorField;
    location    "0.2";
    object      flux;
}
// * * * * * * * * * * * * * * * * * * * * * * * * * * * * * * * * * * * * * //

dimensions      [0 1 -1 1 0 0 0];

internalField   nonuniform List<vector> 
512
(
(0.0275700989391 -28.3168095105 0)
(0.0699213048264 -28.0898162391 0)
(0.0781361485167 -27.7402580506 0)
(0.0421016447376 -27.4424224688 0)
(-0.0343915373847 -27.3830061721 0)
(-0.136015887226 -27.7047454133 0)
(-0.241760586908 -28.4687674616 0)
(-0.331301267394 -29.6465997617 0)
(-0.388898642095 -31.1348130568 0)
(-0.405394565678 -32.7779645841 0)
(-0.380592415786 -34.3981870846 0)
(-0.32468487268 -35.8377866886 0)
(-0.254787250029 -37.0021545509 0)
(-0.18748592511 -37.8742405965 0)
(-0.133397012364 -38.4948564059 0)
(-0.0973780675508 -38.9317833389 0)
(-0.0829375960947 -39.2624909577 0)
(-0.0962617944964 -39.5808148632 0)
(-0.145178327881 -40.0142346456 0)
(-0.232483913561 -40.722547855 0)
(-0.348287153517 -41.8594346038 0)
(-0.468471231677 -43.5063207233 0)
(-0.563729903628 -45.6194255075 0)
(-0.613679352777 -48.0386601481 0)
(-0.614041909714 -50.5535731141 0)
(-0.573201113866 -52.9715742613 0)
(-0.50443421546 -55.1531620728 0)
(-0.41992173005 -57.014958443 0)
(-0.328229613449 -58.5161712972 0)
(-0.234260433589 -59.6419793076 0)
(-0.140213394509 -60.3903314128 0)
(-0.0466561052761 -60.763471962 0)
(0.0859265368007 -28.3688211319 0)
(0.21835442512 -28.1155590384 0)
(0.245560736609 -27.7221559556 0)
(0.136524294551 -27.3772262476 0)
(-0.096769934882 -27.2816796923 0)
(-0.406864757569 -27.5875848255 0)
(-0.729166587264 -28.3580862396 0)
(-1.00172153017 -29.5611034074 0)
(-1.17678376909 -31.0874822391 0)
(-1.22629244824 -32.7742870461 0)
(-1.14931863649 -34.4330334175 0)
(-0.977298860454 -35.8953123753 0)
(-0.763439703925 -37.0628896489 0)
(-0.558865002408 -37.9236429771 0)
(-0.395374358843 -38.5261292689 0)
(-0.286439208321 -38.9424825494 0)
(-0.241578166028 -39.2485358747 0)
(-0.279610049444 -39.5338389357 0)
(-0.425688168006 -39.9262436787 0)
(-0.690116065552 -40.5952053287 0)
(-1.04359928066 -41.710974488 0)
(-1.41152422018 -43.368229849 0)
(-1.70243980878 -45.5209677506 0)
(-1.85339445051 -47.9925914881 0)
(-1.8524151469 -50.5555592507 0)
(-1.72659336549 -53.0084412047 0)
(-1.51725787536 -55.2109380512 0)
(-1.26158288217 -57.0830204936 0)
(-0.985280818874 -58.5880360509 0)
(-0.702819624212 -59.7144490445 0)
(-0.420532932681 -60.4623076272 0)
(-0.139914169323 -60.8349841866 0)
(0.154201145709 -28.4794497131 0)
(0.393253892962 -28.1714591553 0)
(0.447302543883 -27.686822833 0)
(0.262339776403 -27.2441588849 0)
(-0.139570826313 -27.0739753135 0)
(-0.674219160862 -27.3477107117 0)
(-1.22851987786 -28.1321224752 0)
(-1.69599926715 -29.3869331742 0)
(-1.99549046144 -30.9914907965 0)
(-2.07817015485 -32.7682704147 0)
(-1.94110508038 -34.5067588269 0)
(-1.63961298841 -36.0153068095 0)
(-1.26895255094 -37.1880713171 0)
(-0.919105735086 -38.0242261707 0)
(-0.642816798525 -38.5893706851 0)
(-0.458581370451 -38.9649895692 0)
(-0.378615789238 -39.2228080712 0)
(-0.435115696496 -39.4419795549 0)
(-0.67586152435 -39.7499415597 0)
(-1.12484931824 -40.3360549087 0)
(-1.73479941368 -41.4062727436 0)
(-2.37346786299 -43.0848228252 0)
(-2.87591072317 -45.3209584584 0)
(-3.13097510279 -47.9016423344 0)
(-3.121966768 -50.5629383286 0)
(-2.9008905141 -53.0857852148 0)
(-2.54172385993 -55.3292659494 0)
(-2.10847072992 -57.2208912438 0)
(-1.6439438889 -58.7326973856 0)
(-1.17139622174 -59.8598082838 0)
(-0.700480965553 -60.6064065921 0)
(-0.232994384962 -60.9780351249 0)
(0.239921815715 -28.662474786 0)
(0.614667865142 -28.2667343459 0)
(0.709210871793 -27.6359649981 0)
(0.44294805431 -27.0375364202 0)
(-0.148545848275 -26.7493688314 0)
(-0.935938338382 -26.9736849745 0)
(-1.74877781854 -27.7815059042 0)
(-2.43140569086 -29.1176051992 0)
(-2.86745238934 -30.8439974651 0)
(-2.98392646345 -32.7625970928 0)
(-2.77283683387 -34.6278745189 0)
(-2.31795510556 -36.2081946603 0)
(-1.76789938454 -37.3853072785 0)
(-1.25951468638 -38.179344071 0)
(-0.865756058099 -38.6856044922 0)
(-0.603157901368 -39.0013617427 0)
(-0.480073158847 -39.1899680897 0)
(-0.543176793684 -39.3100030425 0)
(-0.872725844927 -39.4851173002 0)
(-1.51828165754 -39.9359559785 0)
(-2.41798323892 -40.9287995038 0)
(-3.36886707759 -42.6407604677 0)
(-4.11084956336 -45.0131796108 0)
(-4.47438438558 -47.7687096869 0)
(-4.44448658709 -50.5830305949 0)
(-4.1097571759 -53.2110907957 0)
(-3.58481088987 -55.5137532526 0)
(-2.96329860028 -57.4320195581 0)
(-2.30473933889 -58.9519505207 0)
(-1.63967422747 -60.0788242544 0)
(-0.979646353224 -60.8228586607 0)
(-0.325728435716 -61.1926232693 0)
(0.352071365782 -28.9399827471 0)
(0.906508786888 -28.4161367342 0)
(1.06190150671 -27.5721191049 0)
(0.70563785976 -26.7480349437 0)
(-0.107645103462 -26.2908640088 0)
(-1.19028769723 -26.447439112 0)
(-2.30047999019 -27.2918964264 0)
(-3.22724504761 -28.7431364642 0)
(-3.81798640829 -30.6401766926 0)
(-3.97010868176 -32.7612168659 0)
(-3.66390386412 -34.8103489193 0)
(-3.01832936819 -36.4910649806 0)
(-2.2545272563 -37.6664621974 0)
(-1.56925434193 -38.3934480262 0)
(-1.05382563436 -38.8153451345 0)
(-0.710763169232 -39.0542156724 0)
(-0.532936439144 -39.1577812127 0)
(-0.582690301742 -39.1466211577 0)
(-0.988837992354 -39.1326559248 0)
(-1.84669042003 -39.3807047338 0)
(-3.08720165826 -40.2511279114 0)
(-4.4156579165 -42.0106039387 0)
(-5.43988533279 -44.5882887636 0)
(-5.91590059484 -47.5995715106 0)
(-5.84315732239 -50.6281346054 0)
(-5.36625184293 -53.3962295772 0)
(-4.65218824111 -55.7729120507 0)
(-3.82756936398 -57.7214274176 0)
(-2.96734623706 -59.2482883676 0)
(-2.10685029174 -60.3724769135 0)
(-1.25738047302 -61.1118792436 0)
(-0.417876689274 -61.4786503719 0)
(0.501844822188 -29.3441877763 0)
(1.29859968623 -28.6411431091 0)
(1.54326176701 -27.4985753032 0)
(1.08357560239 -26.3616600115 0)
(0.00175206760815 -25.6733176382 0)
(-1.43645454721 -25.7430590175 0)
(-2.89662649466 -26.6438460854 0)
(-4.10554582396 -28.2498528736 0)
(-4.87649259018 -30.3723090921 0)
(-5.06901257678 -32.7690324408 0)
(-4.63776089124 -35.075330615 0)
(-3.7460117446 -36.8897533695 0)
(-2.71909090733 -38.0481970802 0)
(-1.83395615495 -38.6712087278 0)
(-1.19613988122 -38.97707963 0)
(-0.774375940455 -39.1259581326 0)
(-0.526275901483 -39.1381615734 0)
(-0.530614149744 -38.9666805445 0)
(-0.989767632957 -38.6963525286 0)
(-2.07751765087 -38.6505654033 0)
(-3.7329328414 -39.3311260965 0)
(-5.53744750364 -41.1552795495 0)
(-6.90533334927 -44.0340533821 0)
(-7.4943073065 -47.4050268027 0)
(-7.34281562041 -50.7172537404 0)
(-6.68214589852 -53.6581807631 0)
(-5.74740981004 -56.1181761796 0)
(-4.70098675875 -58.095447342 0)
(-3.63026408687 -59.6246197607 0)
(-2.57146966545 -60.7417527631 0)
(-1.53273308241 -61.4735458111 0)
(-0.509113999875 -61.8358480491 0)
(0.703593699369 -29.9201260723 0)
(1.82931502344 -28.9718184411 0)
(2.20164305554 -27.4191329681 0)
(1.61826669226 -25.8582096497 0)
(0.201655393514 -24.8608478466 0)
(-1.67555192083 -24.8249700291 0)
(-3.55387691822 -25.8129704924 0)
(-5.09147655095 -27.6203433323 0)
(-6.07757619189 -30.028111277 0)
(-6.32161944322 -32.7909902747 0)
(-5.72426432846 -35.4540353818 0)
(-4.50476260082 -37.4423044339 0)
(-3.14525493545 -38.5526694979 0)
(-2.03369561682 -39.0160605807 0)
(-1.28120033676 -39.1647381286 0)
(-0.791304140951 -39.2173869335 0)
(-0.45329764511 -39.1488153697 0)
(-0.361785779312 -38.7946593393 0)
(-0.830780421759 -38.1860336078 0)
(-2.16407720398 -37.7199881373 0)
(-4.33955873138 -38.1055949081 0)
(-6.76712155931 -40.0161355496 0)
(-8.56475895934 -43.3363082568 0)
(-9.25750077402 -47.2046078972 0)
(-8.9697343026 -50.8786579883 0)
(-8.0667130625 -54.0199132064 0)
(-6.87082153055 -56.5637896696 0)
(-5.58079115454 -58.5613022903 0)
(-4.29049894763 -60.0838965051 0)
(-3.03131331694 -61.1873936059 0)
(-1.80442811602 -61.9076755481 0)
(-0.599027808271 -62.2637130188 0)
(0.975998637777 -30.7293987471 0)
(2.5490962383 -29.4496465033 0)
(3.10006616267 -27.3375281616 0)
(2.36271816318 -25.2091910369 0)
(0.518371877921 -23.8028443901 0)
(-1.91251587015 -23.6452198121 0)
(-4.29431314625 -24.7710065186 0)
(-6.21311621625 -26.833927519 0)
(-7.46181606139 -29.5877176906 0)
(-7.78197462919 -32.8298293991 0)
(-6.96341797084 -35.9926165398 0)
(-5.29532880264 -38.2046622016 0)
(-3.50596898076 -39.2082547396 0)
(-2.13999047028 -39.4279102845 0)
(-1.29680305762 -39.3636158306 0)
(-0.766414561025 -39.3251980119 0)
(-0.314912104379 -39.2157956903 0)
(-0.0492232687577 -38.6700464886 0)
(-0.452432031946 -37.6227641854 0)
(-2.03729830105 -36.5582056284 0)
(-4.88100654756 -36.4797488612 0)
(-8.15280417795 -38.5049899657 0)
(-10.4995695231 -42.4816898416 0)
(-11.2654821723 -47.0328588979 0)
(-10.750468275 -51.1534316799 0)
(-9.52471173916 -54.5112778994 0)
(-8.01810435202 -57.1264144106 0)
(-6.4610401765 -59.1264507033 0)
(-4.94330974464 -60.628633661 0)
(-3.48335918699 -61.7096077043 0)
(-2.07089278888 -62.4137142178 0)
(-0.687132735219 -62.7614648011 0)
(1.34346982126 -31.8551968999 0)
(3.52525031617 -30.1319403656 0)
(4.32187078874 -27.2560550863 0)
(3.385608578 -24.3752925446 0)
(0.983641005928 -22.4277812521 0)
(-2.15963298508 -22.1392277606 0)
(-5.1482307717 -23.4888465835 0)
(-7.49983213695 -25.8683582858 0)
(-9.07552713191 -29.0182449377 0)
(-9.52406886778 -32.8808926192 0)
(-8.41168072975 -36.7605868476 0)
(-6.11258170072 -39.2600281816 0)
(-3.75687897688 -40.0497903388 0)
(-2.11137616232 -39.8996941366 0)
(-1.22984420047 -39.5438942374 0)
(-0.717394070847 -39.4375237501 0)
(-0.125721883438 -39.3775151245 0)
(0.434729973171 -38.6553437897 0)
(0.225140008347 -37.0472412162 0)
(-1.5925695419 -35.1323251065 0)
(-5.31295090006 -34.3096094056 0)
(-9.76809204951 -36.4871280908 0)
(-12.8286934254 -41.4644204382 0)
(-13.5933716932 -46.9497362031 0)
(-12.7089438033 -51.599974331 0)
(-11.0532044278 -55.1695535784 0)
(-9.17840793252 -57.8241876693 0)
(-7.33190077976 -59.7975743213 0)
(-5.58207744813 -61.2603045611 0)
(-3.92385359534 -62.307738755 0)
(-2.33035666442 -62.9906589682 0)
(-0.772903099916 -63.3280325144 0)
(1.83762690492 -33.4087663168 0)
(4.84866714511 -31.0991263879 0)
(5.97839007319 -27.1722154349 0)
(4.77685508028 -23.3040372693 0)
(1.63640426992 -20.6334316212 0)
(-2.44304853584 -20.2186596851 0)
(-6.15887840887 -21.943698416 0)
(-8.97781539334 -24.7042037738 0)
(-10.9680832281 -28.2640839703 0)
(-11.6531455841 -32.9206492232 0)
(-10.152985752 -37.8659497336 0)
(-6.93993054827 -40.7343881651 0)
(-3.82580195827 -41.1169757112 0)
(-1.88704241956 -40.4126087215 0)
(-1.0657178644 -39.6504853149 0)
(-0.683225004603 -39.5258745388 0)
(0.0761778758218 -39.6913224163 0)
(1.11591368542 -38.8475744212 0)
(1.30907730967 -36.5327794293 0)
(-0.668482395739 -33.4167457492 0)
(-5.5584080397 -31.3719633344 0)
(-11.7302096943 -33.7514302078 0)
(-15.7308735792 -40.3021575406 0)
(-16.3332591187 -47.0574813126 0)
(-14.8603769626 -52.2989376213 0)
(-12.6368184083 -56.0389956762 0)
(-10.3321147235 -58.6748429645 0)
(-8.17909862239 -60.5790597651 0)
(-6.19839196149 -61.978618256 0)
(-4.34853639055 -62.9798709381 0)
(-2.58103966856 -63.6370341577 0)
(-0.855819508313 -63.962060255 0)
(2.49828978568 -35.5371076704 0)
(6.64352575709 -32.4677675457 0)
(8.21941534804 -27.0704840493 0)
(6.65500048488 -21.9297275455 0)
(2.52632979805 -18.2709599086 0)
(-2.81476638252 -17.7585186135 0)
(-7.39100281606 -20.1346312762 0)
(-10.6600249141 -23.3347313527 0)
(-13.1837498566 -27.2298328073 0)
(-14.3250017494 -32.8818261264 0)
(-12.3185502007 -39.4835833808 0)
(-7.7380946895 -42.8225778674 0)
(-3.59598925509 -42.4474264798 0)
(-1.37813096414 -40.9305573513 0)
(-0.786477109123 -39.5873139525 0)
(-0.737812621585 -39.5303346905 0)
(0.213428175378 -40.2450525007 0)
(2.0140014667 -39.394143312 0)
(2.94055434433 -36.2041309976 0)
(0.987838505559 -31.4178505783 0)
(-5.48029312937 -27.3119517028 0)
(-14.2331891526 -29.9562114775 0)
(-19.4817189778 -39.0720481378 0)
(-19.5917617335 -47.5271685816 0)
(-17.1997009851 -53.3569240399 0)
(-14.2411570994 -57.1683583252 0)
(-11.448439977 -59.6924064549 0)
(-8.98378842551 -61.4708240768 0)
(-6.78248303461 -62.7807578828 0)
(-4.75306154621 -63.7223185251 0)
(-2.82145132288 -64.3509580096 0)
(-0.935416148577 -64.6619084347 0)
(3.37229696727 -38.4305807886 0)
(9.08197895565 -34.4159717723 0)
(11.2474100733 -26.9018300459 0)
(9.17661715062 -20.1816861006 0)
(3.7220087359 -15.1181759446 0)
(-3.37488421962 -14.5720852533 0)
(-8.94698477847 -18.115035775 0)
(-12.5254161589 -21.7866130645 0)
(-15.7416306149 -25.7510804597 0)
(-17.7800208709 -32.5998821643 0)
(-15.1233616225 -41.9107682762 0)
(-8.42185209775 -45.8325570297 0)
(-2.87979170025 -44.0557787506 0)
(-0.456986155899 -41.3966968271 0)
(-0.365606533958 -39.1932625469 0)
(-1.01209427872 -39.3316453767 0)
(0.14427356504 -41.1790531188 0)
(3.13637443694 -40.5133779527 0)
(5.29722367656 -36.2614016853 0)
(3.77760725167 -29.2347061337 0)
(-4.82758848932 -21.5494370073 0)
(-17.6102579117 -24.5277711609 0)
(-24.5163521313 -37.99190591 0)
(-23.4756970697 -48.6382497941 0)
(-19.6809718345 -54.9047699595 0)
(-15.8045596158 -58.6050425815 0)
(-12.4833475993 -60.8819684512 0)
(-9.72327433637 -62.46539943 0)
(-7.32413918562 -63.660855263 0)
(-5.13363645392 -64.5289027496 0)
(-3.05083462335 -65.130438444 0)
(-1.01129472087 -65.4256416605 0)
(4.50559429383 -42.3259598204 0)
(12.4079011284 -37.2371059694 0)
(15.3365581839 -26.5323387451 0)
(12.5468275356 -18.0167187955 0)
(5.33113022168 -10.8327840449 0)
(-4.31319629773 -10.3597542684 0)
(-10.9982667217 -16.0593254594 0)
(-14.4780472564 -20.1610073596 0)
(-18.5903844065 -23.5466561392 0)
(-22.4048456577 -31.6975059892 0)
(-18.9348876333 -45.6799580832 0)
(-8.8105999267 -50.2613930724 0)
(-1.37805915379 -45.8782120204 0)
(1.05312713769 -41.7416203537 0)
(0.246048616079 -38.2056176281 0)
(-1.73070790755 -38.6967505301 0)
(-0.377438112625 -42.7315776107 0)
(4.47282718347 -42.5185688846 0)
(8.57989025382 -37.0007508904 0)
(8.34382084454 -27.2035958973 0)
(-3.12682564298 -13.1075712196 0)
(-22.454423604 -16.4641029222 0)
(-31.5369582944 -37.6026537358 0)
(-28.0481937583 -50.8310816178 0)
(-22.1830973788 -57.0812182592 0)
(-17.2297563452 -60.3847755079 0)
(-13.3786184013 -62.2321977123 0)
(-10.3732318314 -63.5443429185 0)
(-7.81423469439 -64.6104289182 0)
(-5.48785313669 -65.3897940107 0)
(-3.26982077831 -65.9743115032 0)
(-1.08301775683 -66.251020498 0)
(5.91672389277 -47.4922708758 0)
(16.9787894933 -41.4607501867 0)
(20.8576036603 -25.6137005823 0)
(17.0263945007 -15.5165675926 0)
(7.55049099943 -4.86694112127 0)
(-5.98815492685 -4.60121986339 0)
(-13.8476113241 -14.3997852256 0)
(-16.2690814988 -18.7108607174 0)
(-21.5098799298 -20.1471183559 0)
(-28.8466718429 -29.3331826041 0)
(-24.4053051641 -51.7951152678 0)
(-8.52097906637 -56.9266790397 0)
(1.38009465908 -47.6336652437 0)
(3.37931104028 -41.9303393734 0)
(1.15682837788 -36.2043845874 0)
(-3.27507427004 -37.1684511014 0)
(-1.76663561222 -45.3379371673 0)
(6.00178779713 -45.8411068601 0)
(12.9547101702 -38.8001899796 0)
(15.7241970871 -26.236465798 0)
(0.54215799823 -0.290937964311 0)
(-29.8577991698 -3.9430410061 0)
(-41.6998414791 -39.1793965289 0)
(-33.2149793314 -54.7573745232 0)
(-24.4578187795 -59.9834588798 0)
(-18.3800493424 -62.5178156922 0)
(-14.0631313046 -63.7055381165 0)
(-10.9123899393 -64.6741372399 0)
(-8.2468647317 -65.6213823592 0)
(-5.81557774638 -66.2891955238 0)
(-3.48144786703 -66.8847931816 0)
(-1.1496492183 -67.1354027548 0)
(7.52135463837 -54.1656286317 0)
(23.3471862752 -48.137286403 0)
(28.308649481 -23.2562192926 0)
(22.9202072661 -13.1528414415 0)
(10.7888040863 3.69697229387 0)
(-9.07961834991 3.67571021937 0)
(-18.0530871487 -14.1096573178 0)
(-17.3517138216 -17.976779805 0)
(-23.9015453499 -14.8072834577 0)
(-38.2288441136 -23.6469194103 0)
(-32.7316358511 -62.2397961512 0)
(-6.72987491464 -67.1947203053 0)
(6.12011067935 -48.4877615416 0)
(6.7677674658 -42.1201905199 0)
(2.62699275206 -32.5255168151 0)
(-6.29748419749 -33.8331861079 0)
(-4.71376599198 -49.8548476574 0)
(7.74170077734 -51.0430962811 0)
(18.3822107849 -41.9730195065 0)
(27.5984468522 -28.6065739198 0)
(8.01988675295 19.9342123892 0)
(-41.8986528863 16.4832856959 0)
(-56.9441250529 -45.6621195924 0)
(-38.4502249338 -61.2634598035 0)
(-26.0633179633 -63.5506352542 0)
(-19.0907959636 -64.9795701911 0)
(-14.4567791752 -65.2256542732 0)
(-11.3311539528 -65.8012481543 0)
(-8.62176383633 -66.6946768683 0)
(-6.1195585479 -67.1993542211 0)
(-3.69292439381 -67.8735845884 0)
(-1.20832254342 -68.0747253363 0)
(8.93089500714 -62.3456316941 0)
(32.4334941629 -59.5265509566 0)
(38.349826141 -17.2034985894 0)
(30.502990294 -12.4746803072 0)
(15.9647668299 16.4799991688 0)
(-14.8914697327 16.3951768825 0)
(-24.6738563362 -17.2975230071 0)
(-16.6178945688 -19.000180903 0)
(-24.3449497324 -6.46333776232 0)
(-52.5629281897 -10.520442929 0)
(-46.1792056115 -81.0920677655 0)
(-1.64496176154 -83.3761443008 0)
(13.9173595518 -46.2545173222 0)
(11.3604334035 -43.1139224188 0)
(5.30033058385 -26.1177527061 0)
(-11.9397396912 -26.8158140146 0)
(-10.3715906988 -58.0762826661 0)
(9.94270187257 -58.8054824009 0)
(24.1729713508 -46.2152217621 0)
(46.6778130349 -39.7649025555 0)
(23.0870878061 53.1634329928 0)
(-62.6559651606 51.5894219403 0)
(-80.5732142287 -63.7753426971 0)
(-42.1592371623 -71.0929075526 0)
(-26.3158739733 -67.3271119758 0)
(-19.2175588518 -67.7317643942 0)
(-14.4739702862 -66.6584291451 0)
(-11.6469012369 -66.843938009 0)
(-8.9459177651 -67.8599954988 0)
(-6.40503160645 -68.062317652 0)
(-3.91913342462 -68.97593665 0)
(-1.25021959226 -69.0597307477 0)
)
;

boundaryField
{
    left
    {
        type            calculated;
        value           nonuniform List<vector> 
16
(
(0 -28.3168095105 0)
(0 -28.3688211319 0)
(0 -28.4794497131 0)
(0 -28.662474786 0)
(0 -28.9399827471 0)
(0 -29.3441877763 0)
(0 -29.9201260723 0)
(0 -30.7293987471 0)
(0 -31.8551968999 0)
(0 -33.4087663168 0)
(0 -35.5371076704 0)
(0 -38.4305807886 0)
(0 -42.3259598204 0)
(0 -47.4922708758 0)
(0 -54.1656286317 0)
(0 -62.3456316941 0)
)
;
    }
    right
    {
        type            calculated;
        value           nonuniform List<vector> 
16
(
(0 -60.763471962 0)
(0 -60.8349841866 0)
(0 -60.9780351249 0)
(0 -61.1926232693 0)
(0 -61.4786503719 0)
(0 -61.8358480491 0)
(0 -62.2637130188 0)
(0 -62.7614648011 0)
(0 -63.3280325144 0)
(0 -63.962060255 0)
(0 -64.6619084347 0)
(0 -65.4256416605 0)
(0 -66.251020498 0)
(0 -67.1354027548 0)
(0 -68.0747253363 0)
(0 -69.0597307477 0)
)
;
    }
    interface
    {
        type            calculated;
        value           nonuniform List<vector> 
32
(
(8.93089500714 -66.7879526023 0)
(32.4334941629 -66.7879526023 0)
(38.349826141 -12.8489179436 0)
(30.502990294 -12.8489179436 0)
(15.9647668299 24.1869454612 0)
(-14.8914697327 24.1869454612 0)
(-24.6738563362 -20.1206933594 0)
(-16.6178945688 -20.1206933594 0)
(-24.3449497324 -1.38759988117 0)
(-52.5629281897 -1.38759988117 0)
(-46.1792056115 -93.3087235832 0)
(-1.64496176154 -93.3087235832 0)
(13.9173595518 -43.973275309 0)
(11.3604334035 -43.973275309 0)
(5.30033058385 -22.0704098277 0)
(-11.9397396912 -22.0704098277 0)
(-10.3715906988 -63.4184477729 0)
(9.94270187257 -63.4184477729 0)
(24.1729713508 -48.5003303457 0)
(46.6778130349 -48.5003303457 0)
(23.0870878061 73.9395144332 0)
(-62.6559651606 73.9395144332 0)
(-80.5732142287 -76.9087878494 0)
(-42.1592371623 -76.9087878494 0)
(-26.3158739733 -69.1762774924 0)
(-19.2175588518 -69.1762774924 0)
(-14.4739702862 -67.3318602779 0)
(-11.6469012369 -67.3318602779 0)
(-8.9459177651 -68.4720038489 0)
(-6.40503160645 -68.4720038489 0)
(-3.91913342462 -69.561993917 0)
(-1.25021959226 -69.561993917 0)
)
;
    }
    bottom
    {
        type            calculated;
        value           nonuniform List<vector> 
32
(
(0.0275700989391 -28.3042105001 0)
(0.0699213048264 -28.0836497086 0)
(0.0781361485167 -27.7448400615 0)
(0.0421016447376 -27.4585605204 0)
(-0.0343915373847 -27.4080269035 0)
(-0.136015887226 -27.7336928195 0)
(-0.241760586908 -28.4961540013 0)
(-0.331301267394 -29.6677775148 0)
(-0.388898642095 -31.1465641405 0)
(-0.405394565678 -32.7789666516 0)
(-0.380592415786 -34.3897206659 0)
(-0.32468487268 -35.8237059778 0)
(-0.254787250029 -36.9871996474 0)
(-0.18748592511 -37.8620039781 0)
(-0.133397012364 -38.4870870483 0)
(-0.0973780675508 -38.929180077 0)
(-0.0829375960947 -39.2661115887 0)
(-0.0962617944964 -39.5926808457 0)
(-0.145178327881 -40.0362059446 0)
(-0.232483913561 -40.7541074688 0)
(-0.348287153517 -41.8960772531 0)
(-0.468471231677 -43.5404046969 0)
(-0.563729903628 -45.6438471065 0)
(-0.613679352777 -48.0502439259 0)
(-0.614041909714 -50.5532819288 0)
(-0.573201113866 -52.9625792036 0)
(-0.50443421546 -55.1388908397 0)
(-0.41992173005 -56.9980529273 0)
(-0.328229613449 -58.4982646801 0)
(-0.234260433589 -59.6238898349 0)
(-0.140213394509 -60.3723481488 0)
(-0.0466561052761 -60.745596991 0)
)
;
    }
    defaultFaces
    {
        type            empty;
    }
}


// ************************************************************************* //
