/*--------------------------------*- C++ -*----------------------------------*\
| =========                 |                                                 |
| \\      /  F ield         | OpenFOAM: The Open Source CFD Toolbox           |
|  \\    /   O peration     | Version:  2112                                  |
|   \\  /    A nd           | Website:  www.openfoam.com                      |
|    \\/     M anipulation  |                                                 |
\*---------------------------------------------------------------------------*/
FoamFile
{
    version     2.0;
    format      ascii;
    arch        "LSB;label=32;scalar=64";
    class       volScalarField;
    location    "0.2";
    object      gradTx;
}
// * * * * * * * * * * * * * * * * * * * * * * * * * * * * * * * * * * * * * //

dimensions      [0 -1 0 1 0 0 0];

internalField   nonuniform List<scalar> 
512
(
0.0275700989391
0.0699213048264
0.0781361485167
0.0421016447376
-0.0343915373847
-0.136015887226
-0.241760586908
-0.331301267394
-0.388898642095
-0.405394565678
-0.380592415786
-0.32468487268
-0.254787250029
-0.18748592511
-0.133397012364
-0.0973780675508
-0.0829375960947
-0.0962617944964
-0.145178327881
-0.232483913561
-0.348287153517
-0.468471231677
-0.563729903628
-0.613679352777
-0.614041909714
-0.573201113866
-0.50443421546
-0.41992173005
-0.328229613449
-0.234260433589
-0.140213394509
-0.0466561052761
0.0859265368007
0.21835442512
0.245560736609
0.136524294551
-0.096769934882
-0.406864757569
-0.729166587264
-1.00172153017
-1.17678376909
-1.22629244824
-1.14931863649
-0.977298860454
-0.763439703925
-0.558865002408
-0.395374358843
-0.286439208321
-0.241578166028
-0.279610049444
-0.425688168006
-0.690116065552
-1.04359928066
-1.41152422018
-1.70243980878
-1.85339445051
-1.8524151469
-1.72659336549
-1.51725787536
-1.26158288217
-0.985280818874
-0.702819624212
-0.420532932681
-0.139914169323
0.154201145709
0.393253892962
0.447302543883
0.262339776403
-0.139570826313
-0.674219160862
-1.22851987786
-1.69599926715
-1.99549046144
-2.07817015485
-1.94110508038
-1.63961298841
-1.26895255094
-0.919105735086
-0.642816798525
-0.458581370451
-0.378615789238
-0.435115696496
-0.67586152435
-1.12484931824
-1.73479941368
-2.37346786299
-2.87591072317
-3.13097510279
-3.121966768
-2.9008905141
-2.54172385993
-2.10847072992
-1.6439438889
-1.17139622174
-0.700480965553
-0.232994384962
0.239921815715
0.614667865142
0.709210871793
0.44294805431
-0.148545848275
-0.935938338382
-1.74877781854
-2.43140569086
-2.86745238934
-2.98392646345
-2.77283683387
-2.31795510556
-1.76789938454
-1.25951468638
-0.865756058099
-0.603157901368
-0.480073158847
-0.543176793684
-0.872725844927
-1.51828165754
-2.41798323892
-3.36886707759
-4.11084956336
-4.47438438558
-4.44448658709
-4.1097571759
-3.58481088987
-2.96329860028
-2.30473933889
-1.63967422747
-0.979646353224
-0.325728435716
0.352071365782
0.906508786888
1.06190150671
0.70563785976
-0.107645103462
-1.19028769723
-2.30047999019
-3.22724504761
-3.81798640829
-3.97010868176
-3.66390386412
-3.01832936819
-2.2545272563
-1.56925434193
-1.05382563436
-0.710763169232
-0.532936439144
-0.582690301742
-0.988837992354
-1.84669042003
-3.08720165826
-4.4156579165
-5.43988533279
-5.91590059484
-5.84315732239
-5.36625184293
-4.65218824111
-3.82756936398
-2.96734623706
-2.10685029174
-1.25738047302
-0.417876689274
0.501844822188
1.29859968623
1.54326176701
1.08357560239
0.00175206760815
-1.43645454721
-2.89662649466
-4.10554582396
-4.87649259018
-5.06901257678
-4.63776089124
-3.7460117446
-2.71909090733
-1.83395615495
-1.19613988122
-0.774375940455
-0.526275901483
-0.530614149744
-0.989767632957
-2.07751765087
-3.7329328414
-5.53744750364
-6.90533334927
-7.4943073065
-7.34281562041
-6.68214589852
-5.74740981004
-4.70098675875
-3.63026408687
-2.57146966545
-1.53273308241
-0.509113999875
0.703593699369
1.82931502344
2.20164305554
1.61826669226
0.201655393514
-1.67555192083
-3.55387691822
-5.09147655095
-6.07757619189
-6.32161944322
-5.72426432846
-4.50476260082
-3.14525493545
-2.03369561682
-1.28120033676
-0.791304140951
-0.45329764511
-0.361785779312
-0.830780421759
-2.16407720398
-4.33955873138
-6.76712155931
-8.56475895934
-9.25750077402
-8.9697343026
-8.0667130625
-6.87082153055
-5.58079115454
-4.29049894763
-3.03131331694
-1.80442811602
-0.599027808271
0.975998637777
2.5490962383
3.10006616267
2.36271816318
0.518371877921
-1.91251587015
-4.29431314625
-6.21311621625
-7.46181606139
-7.78197462919
-6.96341797084
-5.29532880264
-3.50596898076
-2.13999047028
-1.29680305762
-0.766414561025
-0.314912104379
-0.0492232687577
-0.452432031946
-2.03729830105
-4.88100654756
-8.15280417795
-10.4995695231
-11.2654821723
-10.750468275
-9.52471173916
-8.01810435202
-6.4610401765
-4.94330974464
-3.48335918699
-2.07089278888
-0.687132735219
1.34346982126
3.52525031617
4.32187078874
3.385608578
0.983641005928
-2.15963298508
-5.1482307717
-7.49983213695
-9.07552713191
-9.52406886778
-8.41168072975
-6.11258170072
-3.75687897688
-2.11137616232
-1.22984420047
-0.717394070847
-0.125721883438
0.434729973171
0.225140008347
-1.5925695419
-5.31295090006
-9.76809204951
-12.8286934254
-13.5933716932
-12.7089438033
-11.0532044278
-9.17840793252
-7.33190077976
-5.58207744813
-3.92385359534
-2.33035666442
-0.772903099916
1.83762690492
4.84866714511
5.97839007319
4.77685508028
1.63640426992
-2.44304853584
-6.15887840887
-8.97781539334
-10.9680832281
-11.6531455841
-10.152985752
-6.93993054827
-3.82580195827
-1.88704241956
-1.0657178644
-0.683225004603
0.0761778758218
1.11591368542
1.30907730967
-0.668482395739
-5.5584080397
-11.7302096943
-15.7308735792
-16.3332591187
-14.8603769626
-12.6368184083
-10.3321147235
-8.17909862239
-6.19839196149
-4.34853639055
-2.58103966856
-0.855819508313
2.49828978568
6.64352575709
8.21941534804
6.65500048488
2.52632979805
-2.81476638252
-7.39100281606
-10.6600249141
-13.1837498566
-14.3250017494
-12.3185502007
-7.7380946895
-3.59598925509
-1.37813096414
-0.786477109123
-0.737812621585
0.213428175378
2.0140014667
2.94055434433
0.987838505559
-5.48029312937
-14.2331891526
-19.4817189778
-19.5917617335
-17.1997009851
-14.2411570994
-11.448439977
-8.98378842551
-6.78248303461
-4.75306154621
-2.82145132288
-0.935416148577
3.37229696727
9.08197895565
11.2474100733
9.17661715062
3.7220087359
-3.37488421962
-8.94698477847
-12.5254161589
-15.7416306149
-17.7800208709
-15.1233616225
-8.42185209775
-2.87979170025
-0.456986155899
-0.365606533958
-1.01209427872
0.14427356504
3.13637443694
5.29722367656
3.77760725167
-4.82758848932
-17.6102579117
-24.5163521313
-23.4756970697
-19.6809718345
-15.8045596158
-12.4833475993
-9.72327433637
-7.32413918562
-5.13363645392
-3.05083462335
-1.01129472087
4.50559429383
12.4079011284
15.3365581839
12.5468275356
5.33113022168
-4.31319629773
-10.9982667217
-14.4780472564
-18.5903844065
-22.4048456577
-18.9348876333
-8.8105999267
-1.37805915379
1.05312713769
0.246048616079
-1.73070790755
-0.377438112625
4.47282718347
8.57989025382
8.34382084454
-3.12682564298
-22.454423604
-31.5369582944
-28.0481937583
-22.1830973788
-17.2297563452
-13.3786184013
-10.3732318314
-7.81423469439
-5.48785313669
-3.26982077831
-1.08301775683
5.91672389277
16.9787894933
20.8576036603
17.0263945007
7.55049099943
-5.98815492685
-13.8476113241
-16.2690814988
-21.5098799298
-28.8466718429
-24.4053051641
-8.52097906637
1.38009465908
3.37931104028
1.15682837788
-3.27507427004
-1.76663561222
6.00178779713
12.9547101702
15.7241970871
0.54215799823
-29.8577991698
-41.6998414791
-33.2149793314
-24.4578187795
-18.3800493424
-14.0631313046
-10.9123899393
-8.2468647317
-5.81557774638
-3.48144786703
-1.1496492183
7.52135463837
23.3471862752
28.308649481
22.9202072661
10.7888040863
-9.07961834991
-18.0530871487
-17.3517138216
-23.9015453499
-38.2288441136
-32.7316358511
-6.72987491464
6.12011067935
6.7677674658
2.62699275206
-6.29748419749
-4.71376599198
7.74170077734
18.3822107849
27.5984468522
8.01988675295
-41.8986528863
-56.9441250529
-38.4502249338
-26.0633179633
-19.0907959636
-14.4567791752
-11.3311539528
-8.62176383633
-6.1195585479
-3.69292439381
-1.20832254342
8.93089500714
32.4334941629
38.349826141
30.502990294
15.9647668299
-14.8914697327
-24.6738563362
-16.6178945688
-24.3449497324
-52.5629281897
-46.1792056115
-1.64496176154
13.9173595518
11.3604334035
5.30033058385
-11.9397396912
-10.3715906988
9.94270187257
24.1729713508
46.6778130349
23.0870878061
-62.6559651606
-80.5732142287
-42.1592371623
-26.3158739733
-19.2175588518
-14.4739702862
-11.6469012369
-8.9459177651
-6.40503160645
-3.91913342462
-1.25021959226
)
;

boundaryField
{
    left
    {
        type            calculated;
        value           uniform 0;
    }
    right
    {
        type            calculated;
        value           uniform 0;
    }
    interface
    {
        type            calculated;
        value           nonuniform List<scalar> 
32
(
8.93089500714
32.4334941629
38.349826141
30.502990294
15.9647668299
-14.8914697327
-24.6738563362
-16.6178945688
-24.3449497324
-52.5629281897
-46.1792056115
-1.64496176154
13.9173595518
11.3604334035
5.30033058385
-11.9397396912
-10.3715906988
9.94270187257
24.1729713508
46.6778130349
23.0870878061
-62.6559651606
-80.5732142287
-42.1592371623
-26.3158739733
-19.2175588518
-14.4739702862
-11.6469012369
-8.9459177651
-6.40503160645
-3.91913342462
-1.25021959226
)
;
    }
    bottom
    {
        type            calculated;
        value           nonuniform List<scalar> 
32
(
0.0275700989391
0.0699213048264
0.0781361485167
0.0421016447376
-0.0343915373847
-0.136015887226
-0.241760586908
-0.331301267394
-0.388898642095
-0.405394565678
-0.380592415786
-0.32468487268
-0.254787250029
-0.18748592511
-0.133397012364
-0.0973780675508
-0.0829375960947
-0.0962617944964
-0.145178327881
-0.232483913561
-0.348287153517
-0.468471231677
-0.563729903628
-0.613679352777
-0.614041909714
-0.573201113866
-0.50443421546
-0.41992173005
-0.328229613449
-0.234260433589
-0.140213394509
-0.0466561052761
)
;
    }
    defaultFaces
    {
        type            empty;
    }
}


// ************************************************************************* //
