/*--------------------------------*- C++ -*----------------------------------*\
| =========                 |                                                 |
| \\      /  F ield         | OpenFOAM: The Open Source CFD Toolbox           |
|  \\    /   O peration     | Version:  2112                                  |
|   \\  /    A nd           | Website:  www.openfoam.com                      |
|    \\/     M anipulation  |                                                 |
\*---------------------------------------------------------------------------*/
FoamFile
{
    version     2.0;
    format      ascii;
    arch        "LSB;label=32;scalar=64";
    class       volScalarField;
    location    "0.2";
    object      gradTy;
}
// * * * * * * * * * * * * * * * * * * * * * * * * * * * * * * * * * * * * * //

dimensions      [0 -1 0 1 0 0 0];

internalField   nonuniform List<scalar> 
512
(
-28.3168095105
-28.0898162391
-27.7402580506
-27.4424224688
-27.3830061721
-27.7047454133
-28.4687674616
-29.6465997617
-31.1348130568
-32.7779645841
-34.3981870846
-35.8377866886
-37.0021545509
-37.8742405965
-38.4948564059
-38.9317833389
-39.2624909577
-39.5808148632
-40.0142346456
-40.722547855
-41.8594346038
-43.5063207233
-45.6194255075
-48.0386601481
-50.5535731141
-52.9715742613
-55.1531620728
-57.014958443
-58.5161712972
-59.6419793076
-60.3903314128
-60.763471962
-28.3688211319
-28.1155590384
-27.7221559556
-27.3772262476
-27.2816796923
-27.5875848255
-28.3580862396
-29.5611034074
-31.0874822391
-32.7742870461
-34.4330334175
-35.8953123753
-37.0628896489
-37.9236429771
-38.5261292689
-38.9424825494
-39.2485358747
-39.5338389357
-39.9262436787
-40.5952053287
-41.710974488
-43.368229849
-45.5209677506
-47.9925914881
-50.5555592507
-53.0084412047
-55.2109380512
-57.0830204936
-58.5880360509
-59.7144490445
-60.4623076272
-60.8349841866
-28.4794497131
-28.1714591553
-27.686822833
-27.2441588849
-27.0739753135
-27.3477107117
-28.1321224752
-29.3869331742
-30.9914907965
-32.7682704147
-34.5067588269
-36.0153068095
-37.1880713171
-38.0242261707
-38.5893706851
-38.9649895692
-39.2228080712
-39.4419795549
-39.7499415597
-40.3360549087
-41.4062727436
-43.0848228252
-45.3209584584
-47.9016423344
-50.5629383286
-53.0857852148
-55.3292659494
-57.2208912438
-58.7326973856
-59.8598082838
-60.6064065921
-60.9780351249
-28.662474786
-28.2667343459
-27.6359649981
-27.0375364202
-26.7493688314
-26.9736849745
-27.7815059042
-29.1176051992
-30.8439974651
-32.7625970928
-34.6278745189
-36.2081946603
-37.3853072785
-38.179344071
-38.6856044922
-39.0013617427
-39.1899680897
-39.3100030425
-39.4851173002
-39.9359559785
-40.9287995038
-42.6407604677
-45.0131796108
-47.7687096869
-50.5830305949
-53.2110907957
-55.5137532526
-57.4320195581
-58.9519505207
-60.0788242544
-60.8228586607
-61.1926232693
-28.9399827471
-28.4161367342
-27.5721191049
-26.7480349437
-26.2908640088
-26.447439112
-27.2918964264
-28.7431364642
-30.6401766926
-32.7612168659
-34.8103489193
-36.4910649806
-37.6664621974
-38.3934480262
-38.8153451345
-39.0542156724
-39.1577812127
-39.1466211577
-39.1326559248
-39.3807047338
-40.2511279114
-42.0106039387
-44.5882887636
-47.5995715106
-50.6281346054
-53.3962295772
-55.7729120507
-57.7214274176
-59.2482883676
-60.3724769135
-61.1118792436
-61.4786503719
-29.3441877763
-28.6411431091
-27.4985753032
-26.3616600115
-25.6733176382
-25.7430590175
-26.6438460854
-28.2498528736
-30.3723090921
-32.7690324408
-35.075330615
-36.8897533695
-38.0481970802
-38.6712087278
-38.97707963
-39.1259581326
-39.1381615734
-38.9666805445
-38.6963525286
-38.6505654033
-39.3311260965
-41.1552795495
-44.0340533821
-47.4050268027
-50.7172537404
-53.6581807631
-56.1181761796
-58.095447342
-59.6246197607
-60.7417527631
-61.4735458111
-61.8358480491
-29.9201260723
-28.9718184411
-27.4191329681
-25.8582096497
-24.8608478466
-24.8249700291
-25.8129704924
-27.6203433323
-30.028111277
-32.7909902747
-35.4540353818
-37.4423044339
-38.5526694979
-39.0160605807
-39.1647381286
-39.2173869335
-39.1488153697
-38.7946593393
-38.1860336078
-37.7199881373
-38.1055949081
-40.0161355496
-43.3363082568
-47.2046078972
-50.8786579883
-54.0199132064
-56.5637896696
-58.5613022903
-60.0838965051
-61.1873936059
-61.9076755481
-62.2637130188
-30.7293987471
-29.4496465033
-27.3375281616
-25.2091910369
-23.8028443901
-23.6452198121
-24.7710065186
-26.833927519
-29.5877176906
-32.8298293991
-35.9926165398
-38.2046622016
-39.2082547396
-39.4279102845
-39.3636158306
-39.3251980119
-39.2157956903
-38.6700464886
-37.6227641854
-36.5582056284
-36.4797488612
-38.5049899657
-42.4816898416
-47.0328588979
-51.1534316799
-54.5112778994
-57.1264144106
-59.1264507033
-60.628633661
-61.7096077043
-62.4137142178
-62.7614648011
-31.8551968999
-30.1319403656
-27.2560550863
-24.3752925446
-22.4277812521
-22.1392277606
-23.4888465835
-25.8683582858
-29.0182449377
-32.8808926192
-36.7605868476
-39.2600281816
-40.0497903388
-39.8996941366
-39.5438942374
-39.4375237501
-39.3775151245
-38.6553437897
-37.0472412162
-35.1323251065
-34.3096094056
-36.4871280908
-41.4644204382
-46.9497362031
-51.599974331
-55.1695535784
-57.8241876693
-59.7975743213
-61.2603045611
-62.307738755
-62.9906589682
-63.3280325144
-33.4087663168
-31.0991263879
-27.1722154349
-23.3040372693
-20.6334316212
-20.2186596851
-21.943698416
-24.7042037738
-28.2640839703
-32.9206492232
-37.8659497336
-40.7343881651
-41.1169757112
-40.4126087215
-39.6504853149
-39.5258745388
-39.6913224163
-38.8475744212
-36.5327794293
-33.4167457492
-31.3719633344
-33.7514302078
-40.3021575406
-47.0574813126
-52.2989376213
-56.0389956762
-58.6748429645
-60.5790597651
-61.978618256
-62.9798709381
-63.6370341577
-63.962060255
-35.5371076704
-32.4677675457
-27.0704840493
-21.9297275455
-18.2709599086
-17.7585186135
-20.1346312762
-23.3347313527
-27.2298328073
-32.8818261264
-39.4835833808
-42.8225778674
-42.4474264798
-40.9305573513
-39.5873139525
-39.5303346905
-40.2450525007
-39.394143312
-36.2041309976
-31.4178505783
-27.3119517028
-29.9562114775
-39.0720481378
-47.5271685816
-53.3569240399
-57.1683583252
-59.6924064549
-61.4708240768
-62.7807578828
-63.7223185251
-64.3509580096
-64.6619084347
-38.4305807886
-34.4159717723
-26.9018300459
-20.1816861006
-15.1181759446
-14.5720852533
-18.115035775
-21.7866130645
-25.7510804597
-32.5998821643
-41.9107682762
-45.8325570297
-44.0557787506
-41.3966968271
-39.1932625469
-39.3316453767
-41.1790531188
-40.5133779527
-36.2614016853
-29.2347061337
-21.5494370073
-24.5277711609
-37.99190591
-48.6382497941
-54.9047699595
-58.6050425815
-60.8819684512
-62.46539943
-63.660855263
-64.5289027496
-65.130438444
-65.4256416605
-42.3259598204
-37.2371059694
-26.5323387451
-18.0167187955
-10.8327840449
-10.3597542684
-16.0593254594
-20.1610073596
-23.5466561392
-31.6975059892
-45.6799580832
-50.2613930724
-45.8782120204
-41.7416203537
-38.2056176281
-38.6967505301
-42.7315776107
-42.5185688846
-37.0007508904
-27.2035958973
-13.1075712196
-16.4641029222
-37.6026537358
-50.8310816178
-57.0812182592
-60.3847755079
-62.2321977123
-63.5443429185
-64.6104289182
-65.3897940107
-65.9743115032
-66.251020498
-47.4922708758
-41.4607501867
-25.6137005823
-15.5165675926
-4.86694112127
-4.60121986339
-14.3997852256
-18.7108607174
-20.1471183559
-29.3331826041
-51.7951152678
-56.9266790397
-47.6336652437
-41.9303393734
-36.2043845874
-37.1684511014
-45.3379371673
-45.8411068601
-38.8001899796
-26.236465798
-0.290937964311
-3.9430410061
-39.1793965289
-54.7573745232
-59.9834588798
-62.5178156922
-63.7055381165
-64.6741372399
-65.6213823592
-66.2891955238
-66.8847931816
-67.1354027548
-54.1656286317
-48.137286403
-23.2562192926
-13.1528414415
3.69697229387
3.67571021937
-14.1096573178
-17.976779805
-14.8072834577
-23.6469194103
-62.2397961512
-67.1947203053
-48.4877615416
-42.1201905199
-32.5255168151
-33.8331861079
-49.8548476574
-51.0430962811
-41.9730195065
-28.6065739198
19.9342123892
16.4832856959
-45.6621195924
-61.2634598035
-63.5506352542
-64.9795701911
-65.2256542732
-65.8012481543
-66.6946768683
-67.1993542211
-67.8735845884
-68.0747253363
-62.3456316941
-59.5265509566
-17.2034985894
-12.4746803072
16.4799991688
16.3951768825
-17.2975230071
-19.000180903
-6.46333776232
-10.520442929
-81.0920677655
-83.3761443008
-46.2545173222
-43.1139224188
-26.1177527061
-26.8158140146
-58.0762826661
-58.8054824009
-46.2152217621
-39.7649025555
53.1634329928
51.5894219403
-63.7753426971
-71.0929075526
-67.3271119758
-67.7317643942
-66.6584291451
-66.843938009
-67.8599954988
-68.062317652
-68.97593665
-69.0597307477
)
;

boundaryField
{
    left
    {
        type            calculated;
        value           nonuniform List<scalar> 
16
(
-28.3168095105
-28.3688211319
-28.4794497131
-28.662474786
-28.9399827471
-29.3441877763
-29.9201260723
-30.7293987471
-31.8551968999
-33.4087663168
-35.5371076704
-38.4305807886
-42.3259598204
-47.4922708758
-54.1656286317
-62.3456316941
)
;
    }
    right
    {
        type            calculated;
        value           nonuniform List<scalar> 
16
(
-60.763471962
-60.8349841866
-60.9780351249
-61.1926232693
-61.4786503719
-61.8358480491
-62.2637130188
-62.7614648011
-63.3280325144
-63.962060255
-64.6619084347
-65.4256416605
-66.251020498
-67.1354027548
-68.0747253363
-69.0597307477
)
;
    }
    interface
    {
        type            calculated;
        value           nonuniform List<scalar> 
32
(
-66.7879526023
-66.7879526023
-12.8489179436
-12.8489179436
24.1869454612
24.1869454612
-20.1206933594
-20.1206933594
-1.38759988117
-1.38759988117
-93.3087235832
-93.3087235832
-43.973275309
-43.973275309
-22.0704098277
-22.0704098277
-63.4184477729
-63.4184477729
-48.5003303457
-48.5003303457
73.9395144332
73.9395144332
-76.9087878494
-76.9087878494
-69.1762774924
-69.1762774924
-67.3318602779
-67.3318602779
-68.4720038489
-68.4720038489
-69.561993917
-69.561993917
)
;
    }
    bottom
    {
        type            calculated;
        value           nonuniform List<scalar> 
32
(
-28.3042105001
-28.0836497086
-27.7448400615
-27.4585605204
-27.4080269035
-27.7336928195
-28.4961540013
-29.6677775148
-31.1465641405
-32.7789666516
-34.3897206659
-35.8237059778
-36.9871996474
-37.8620039781
-38.4870870483
-38.929180077
-39.2661115887
-39.5926808457
-40.0362059446
-40.7541074688
-41.8960772531
-43.5404046969
-45.6438471065
-48.0502439259
-50.5532819288
-52.9625792036
-55.1388908397
-56.9980529273
-58.4982646801
-59.6238898349
-60.3723481488
-60.745596991
)
;
    }
    defaultFaces
    {
        type            empty;
    }
}


// ************************************************************************* //
