/*--------------------------------*- C++ -*----------------------------------*\
| =========                 |                                                 |
| \\      /  F ield         | OpenFOAM: The Open Source CFD Toolbox           |
|  \\    /   O peration     | Version:  2112                                  |
|   \\  /    A nd           | Website:  www.openfoam.com                      |
|    \\/     M anipulation  |                                                 |
\*---------------------------------------------------------------------------*/
FoamFile
{
    version     2.0;
    format      ascii;
    arch        "LSB;label=32;scalar=64";
    class       volScalarField;
    location    "0.2";
    object      T;
}
// * * * * * * * * * * * * * * * * * * * * * * * * * * * * * * * * * * * * * //

dimensions      [0 0 0 1 0 0 0];

internalField   nonuniform List<scalar> 
512
(
309.77893881
309.78068008
309.783358815
309.785636574
309.786074059
309.783570748
309.777650387
309.768529859
309.757008197
309.744290471
309.731750237
309.720603106
309.711583216
309.704831582
309.700041185
309.696687911
309.694161135
309.69171675
309.688353908
309.682833389
309.673974954
309.661160183
309.644728425
309.625907401
309.606319135
309.587459843
309.570422125
309.555865906
309.544119386
309.535304732
309.529443187
309.526520342
309.336419808
309.341846083
309.35022001
309.357416891
309.359009534
309.351623886
309.333814483
309.306259032
309.27139951
309.232910082
309.194993533
309.161377586
309.134292393
309.11412493
309.099896156
309.090000771
309.082618427
309.075547222
309.065779328
309.049522116
309.023109062
308.984585466
308.934986152
308.878118633
308.818979598
308.762127511
308.710848156
308.667096008
308.631824065
308.60537361
308.587791616
308.579026216
308.892659923
308.902395257
308.917505102
308.930739399
308.934345951
308.922454904
308.892604714
308.846021661
308.786925757
308.721635231
308.65743441
308.600819073
308.555601246
308.522294913
308.499063377
308.483116424
308.47146478
308.460553839
308.445361835
308.41931278
308.375856592
308.311381997
308.227672009
308.13151195
308.031682052
307.936012401
307.849998711
307.776808076
307.717920028
307.673818497
307.644526826
307.629929476
308.446657667
308.461799414
308.485474154
308.506703244
308.513816862
308.498061798
308.455893656
308.389257679
308.304378908
308.210501514
308.118432064
308.037909214
307.974479587
307.92854747
307.897068091
307.875876283
307.860903777
307.847467119
307.828550294
307.794394836
307.734836366
307.643992341
307.524489882
307.38684693
307.244367679
307.108500674
306.986953263
306.883947107
306.801313406
306.739548879
306.698573304
306.678165062
307.997135023
308.019345503
308.054353597
308.086522505
308.099367773
308.080671621
308.025740067
307.937536219
307.824609273
307.699492458
307.577174842
307.471420619
307.389747596
307.332026838
307.293421494
307.268085435
307.251047208
307.236921445
307.216797864
307.177145484
307.103009148
306.9851769
306.827272492
306.644825997
306.456833046
306.278833033
306.120685092
305.987395598
305.880880804
305.801464729
305.748855678
305.722671754
307.542395273
307.574041153
307.624323409
307.671589939
307.6932683
307.672852561
307.604468889
307.492612518
307.348562052
307.188521013
307.03258461
306.899800164
306.800005722
306.73180392
306.687638322
306.659508891
306.641860666
306.629380819
306.611535834
306.570215251
306.483874282
306.338196173
306.138032064
305.906037955
305.668641953
305.446031887
305.250016446
305.085951454
304.955460509
304.858454441
304.794299763
304.762394361
307.080145861
307.124496883
307.195506237
307.263560478
307.298256513
307.277649098
307.194752608
307.05648768
306.877332443
306.677418604
306.483186799
306.321010811
306.203554401
306.126881942
306.079284463
306.049883337
306.033088494
306.025021243
306.014110518
305.976620871
305.881742195
305.707063474
305.459003992
305.170857919
304.879003676
304.608815065
304.373573481
304.17831045
304.023848366
303.909396055
303.833835518
303.796287416
306.607271398
306.668772895
306.767961597
306.864462924
306.917732934
306.898751414
306.799685887
306.631467054
306.412254686
306.165945038
305.926923565
305.732305533
305.59830171
305.516230561
305.468074224
305.438957274
305.424147085
305.423545564
305.425658067
305.399839874
305.302133146
305.096916119
304.792667692
304.439273662
304.086603804
303.765495167
303.489745252
303.263057642
303.08480109
302.953163559
302.866402849
302.823320815
306.119538374
306.204171937
306.341692633
306.476848755
306.556030977
306.540716709
306.42283393
306.220205557
305.955052608
305.653848762
305.360870729
305.129890183
304.981660937
304.89886442
304.854047482
304.826582196
304.813969582
304.823896291
304.846877519
304.843886173
304.752385663
304.514586435
304.141706142
303.710588895
303.289372156
302.913867132
302.596654001
302.338673456
302.137049665
301.988639582
301.890960628
301.842487355
305.611209535
305.726946793
305.916683402
306.103983338
306.218806624
306.20927354
306.068212175
305.825712861
305.508100558
305.141040656
304.780786056
304.508402916
304.350451371
304.273986811
304.237872922
304.212894951
304.200773309
304.223818198
304.277641478
304.313309203
304.242617378
303.969516245
303.508815154
302.982922603
302.484173557
302.051092842
301.69214792
301.403561275
301.179324552
301.014734883
300.906498101
300.852811172
305.074544572
305.231863288
305.49301066
305.750068626
305.913618456
305.911769028
305.740109823
305.451260724
305.074880276
304.628015729
304.180349302
303.860087182
303.700846615
303.641219134
303.62134726
303.598664484
303.581697106
303.619206944
303.716358798
303.812972955
303.787289854
303.475278775
302.896162583
302.252377403
301.666419265
301.17360299
300.773833296
300.456104484
300.210392302
300.03041395
299.912046036
299.853355236
304.499171504
304.711497331
305.071139624
305.420435832
305.650820731
305.657881496
305.44258012
305.100075802
304.660779697
304.116809191
303.549815135
303.173447414
303.028493587
303.000918731
303.008195932
302.98594169
302.952202894
303.00316745
303.158987879
303.347271886
303.40783431
303.052211776
302.304053202
301.511691939
300.829635489
300.277055419
299.839171526
299.494763127
299.229100044
299.034726173
298.906683438
298.84322657
303.871347244
304.154997818
304.652679065
305.121506824
305.444989791
305.460858718
305.178240763
304.774592174
304.274471209
303.613102442
302.873502632
302.431022659
302.329118629
302.354514028
302.405334051
302.379286894
302.305015071
302.36470767
302.597638419
302.917981665
303.137190231
302.732156327
301.727810304
300.748146912
299.965121745
299.356414277
298.885678067
298.518224543
298.234419009
298.026845999
297.889534746
297.821580897
303.173231592
303.545692565
304.242292169
304.859958535
305.317297137
305.339844594
304.945661656
304.474845808
303.930220389
303.130816388
302.124896657
301.605641871
301.600397925
301.704557844
301.824828506
301.788140265
301.628087953
301.687030832
302.018927517
302.518885177
303.027883196
302.567320669
301.150655528
299.940548679
299.062037999
298.406228764
297.911270193
297.525627283
297.225464761
297.006135468
296.859748744
296.787632633
302.382591414
302.856042782
303.852526351
304.639601206
305.299643703
305.324519696
304.733853889
304.19528407
303.651534196
302.702137606
301.256697943
300.654043596
300.846951228
301.053567381
301.286936796
301.231540564
300.90041987
300.945491104
301.403038724
302.122875754
303.166813137
302.64747063
300.527563455
299.05553957
298.108651416
297.421139856
296.914809448
296.516878861
296.201432936
295.972261079
295.816431916
295.740676822
301.474122291
302.036287597
303.516020446
304.452172834
305.442247073
305.464722635
304.510739181
303.918852427
303.47625883
302.399565825
300.179930091
299.505898484
300.092837353
300.399065317
300.824854356
300.747836537
300.082944938
300.105459593
300.726739338
301.651617405
303.703073851
303.134386537
299.748622809
298.045070947
297.096130416
296.396409211
295.896894196
295.493096173
295.161296557
294.9254408
294.758453858
294.680129859
)
;

boundaryField
{
    left
    {
        type            zeroGradient;
    }
    right
    {
        type            zeroGradient;
    }
    interface
    {
        type            fixedGradient;
        gradient        nonuniform List<scalar> 
32
(
-67.1081076179
-67.1081076179
-12.7800090269
-12.7800090269
24.7115975652
24.7115975652
-19.9571539968
-19.9571539968
-0.934974252714
-0.934974252714
-93.5062862842
-93.5062862842
-43.586943697
-43.586943697
-21.2800731103
-21.2800731103
-63.0325820592
-63.0325820592
-47.7914296886
-47.7914296886
76.7112227263
76.7112227263
-76.3525323684
-76.3525323684
-68.4036040764
-68.4036040764
-66.2926263176
-66.2926263176
-67.7341673247
-67.7341673247
-68.7661935069
-68.7661935069
)
;
    }
    bottom
    {
        type            fixedValue;
        value           uniform 310;
    }
    defaultFaces
    {
        type            empty;
    }
}


// ************************************************************************* //
