/*--------------------------------*- C++ -*----------------------------------*\
| =========                 |                                                 |
| \\      /  F ield         | OpenFOAM: The Open Source CFD Toolbox           |
|  \\    /   O peration     | Version:  2112                                  |
|   \\  /    A nd           | Website:  www.openfoam.com                      |
|    \\/     M anipulation  |                                                 |
\*---------------------------------------------------------------------------*/
FoamFile
{
    version     2.0;
    format      ascii;
    arch        "LSB;label=32;scalar=64";
    class       volScalarField;
    location    "0.4";
    object      p;
}
// * * * * * * * * * * * * * * * * * * * * * * * * * * * * * * * * * * * * * //

dimensions      [1 -1 -2 0 0 0 0];

internalField   nonuniform List<scalar> 
12013
(
103499.988281
103499.988279
103499.988278
103499.988277
103499.988276
103499.988274
103499.988272
103499.98827
103499.988267
103499.988265
103499.988262
103499.988258
103499.988254
103499.98825
103499.988246
103499.988241
103499.988236
103499.988231
103499.988225
103499.988219
103499.988212
103499.988205
103499.988197
103499.988189
103499.988181
103499.988172
103499.988162
103499.988152
103499.988141
103499.98813
103499.988118
103499.988106
103499.988093
103499.988079
103499.988065
103499.98805
103499.988034
103499.988018
103499.988001
103499.987984
103499.987966
103499.987947
103499.987928
103499.987909
103499.987889
103499.987868
103499.987848
103499.987827
103499.987805
103499.987784
103499.987762
103499.987741
103499.987719
103499.987698
103499.987677
103499.987657
103499.987637
103499.987618
103499.9876
103499.987583
103499.987568
103499.987554
103499.987543
103499.987534
103499.987528
103499.987526
103499.987528
103499.987536
103499.987549
103499.98757
103499.9876
103499.987641
103499.987696
103499.98777
103499.987866
103499.987994
103499.988163
103499.988389
103499.9887
103499.989182
103499.989922
103499.964653
103499.964652
103499.964651
103499.96465
103499.964648
103499.964647
103499.964645
103499.964643
103499.96464
103499.964637
103499.964634
103499.964631
103499.964627
103499.964623
103499.964619
103499.964614
103499.964609
103499.964604
103499.964598
103499.964592
103499.964585
103499.964578
103499.96457
103499.964562
103499.964554
103499.964545
103499.964535
103499.964525
103499.964515
103499.964504
103499.964492
103499.96448
103499.964467
103499.964453
103499.964439
103499.964424
103499.964409
103499.964393
103499.964376
103499.964359
103499.964342
103499.964324
103499.964305
103499.964286
103499.964267
103499.964247
103499.964227
103499.964206
103499.964186
103499.964165
103499.964144
103499.964123
103499.964103
103499.964082
103499.964062
103499.964043
103499.964024
103499.964006
103499.963989
103499.963973
103499.963959
103499.963947
103499.963937
103499.96393
103499.963925
103499.963924
103499.963927
103499.963936
103499.96395
103499.963971
103499.964002
103499.964042
103499.964095
103499.964164
103499.964253
103499.964366
103499.964509
103499.964685
103499.9649
103499.965182
103499.965508
103499.939371
103499.93937
103499.939369
103499.939368
103499.939366
103499.939365
103499.939363
103499.93936
103499.939358
103499.939355
103499.939352
103499.939349
103499.939345
103499.939341
103499.939337
103499.939332
103499.939327
103499.939322
103499.939316
103499.93931
103499.939303
103499.939296
103499.939289
103499.939281
103499.939272
103499.939263
103499.939254
103499.939244
103499.939233
103499.939222
103499.939211
103499.939199
103499.939186
103499.939172
103499.939159
103499.939144
103499.939129
103499.939113
103499.939097
103499.939081
103499.939063
103499.939046
103499.939028
103499.939009
103499.93899
103499.938971
103499.938951
103499.938931
103499.938911
103499.938891
103499.938871
103499.938851
103499.938832
103499.938812
103499.938793
103499.938775
103499.938757
103499.93874
103499.938724
103499.93871
103499.938697
103499.938685
103499.938676
103499.93867
103499.938666
103499.938666
103499.93867
103499.938679
103499.938693
103499.938713
103499.938741
103499.938779
103499.938826
103499.938886
103499.938959
103499.939047
103499.93915
103499.939261
103499.939368
103499.939444
103499.93942
103499.912318
103499.912316
103499.912316
103499.912314
103499.912313
103499.912311
103499.91231
103499.912307
103499.912305
103499.912302
103499.912299
103499.912296
103499.912292
103499.912288
103499.912284
103499.912279
103499.912274
103499.912269
103499.912263
103499.912257
103499.91225
103499.912243
103499.912236
103499.912228
103499.91222
103499.912211
103499.912201
103499.912192
103499.912181
103499.91217
103499.912159
103499.912147
103499.912134
103499.912121
103499.912108
103499.912093
103499.912079
103499.912063
103499.912048
103499.912031
103499.912014
103499.911997
103499.91198
103499.911962
103499.911943
103499.911924
103499.911906
103499.911886
103499.911867
103499.911848
103499.911829
103499.91181
103499.911791
103499.911772
103499.911754
103499.911736
103499.91172
103499.911704
103499.911689
103499.911675
103499.911663
103499.911653
103499.911645
103499.911639
103499.911636
103499.911636
103499.91164
103499.911648
103499.91166
103499.911679
103499.911703
103499.911734
103499.911773
103499.91182
103499.911874
103499.911933
103499.911994
103499.912047
103499.912075
103499.912048
103499.911919
103499.88337
103499.883368
103499.883367
103499.883366
103499.883365
103499.883363
103499.883362
103499.883359
103499.883357
103499.883354
103499.883351
103499.883348
103499.883344
103499.88334
103499.883336
103499.883331
103499.883326
103499.883321
103499.883315
103499.883309
103499.883303
103499.883296
103499.883288
103499.88328
103499.883272
103499.883263
103499.883254
103499.883245
103499.883234
103499.883224
103499.883212
103499.883201
103499.883188
103499.883175
103499.883162
103499.883148
103499.883134
103499.883119
103499.883103
103499.883087
103499.883071
103499.883054
103499.883037
103499.88302
103499.883002
103499.882984
103499.882966
103499.882947
103499.882929
103499.88291
103499.882892
103499.882874
103499.882855
103499.882838
103499.882821
103499.882804
103499.882788
103499.882773
103499.882759
103499.882746
103499.882735
103499.882726
103499.882718
103499.882712
103499.882709
103499.882709
103499.882712
103499.882719
103499.882729
103499.882744
103499.882763
103499.882786
103499.882814
103499.882846
103499.882879
103499.882911
103499.882936
103499.882945
103499.882924
103499.882853
103499.882708
103499.852394
103499.852393
103499.852392
103499.852391
103499.852389
103499.852388
103499.852386
103499.852384
103499.852381
103499.852379
103499.852375
103499.852372
103499.852369
103499.852365
103499.85236
103499.852356
103499.852351
103499.852345
103499.85234
103499.852334
103499.852327
103499.85232
103499.852313
103499.852305
103499.852297
103499.852289
103499.85228
103499.85227
103499.85226
103499.852249
103499.852238
103499.852227
103499.852215
103499.852202
103499.852189
103499.852175
103499.852161
103499.852147
103499.852132
103499.852116
103499.8521
103499.852084
103499.852068
103499.852051
103499.852034
103499.852016
103499.851999
103499.851981
103499.851963
103499.851946
103499.851928
103499.851911
103499.851893
103499.851877
103499.85186
103499.851845
103499.85183
103499.851815
103499.851802
103499.85179
103499.85178
103499.85177
103499.851763
103499.851757
103499.851754
103499.851753
103499.851754
103499.851759
103499.851766
103499.851775
103499.851788
103499.851803
103499.851819
103499.851836
103499.85185
103499.851859
103499.851856
103499.851835
103499.851786
103499.851699
103499.851561
103499.819248
103499.819247
103499.819246
103499.819245
103499.819244
103499.819242
103499.819241
103499.819238
103499.819236
103499.819233
103499.81923
103499.819227
103499.819223
103499.819219
103499.819215
103499.819211
103499.819206
103499.8192
103499.819195
103499.819189
103499.819182
103499.819176
103499.819168
103499.819161
103499.819153
103499.819144
103499.819135
103499.819126
103499.819116
103499.819106
103499.819095
103499.819084
103499.819072
103499.819059
103499.819047
103499.819033
103499.81902
103499.819006
103499.818991
103499.818976
103499.818961
103499.818945
103499.818929
103499.818913
103499.818896
103499.81888
103499.818863
103499.818846
103499.818829
103499.818812
103499.818795
103499.818779
103499.818762
103499.818746
103499.818731
103499.818716
103499.818702
103499.818688
103499.818676
103499.818664
103499.818654
103499.818645
103499.818638
103499.818632
103499.818628
103499.818625
103499.818624
103499.818626
103499.818629
103499.818633
103499.818639
103499.818645
103499.81865
103499.818653
103499.818651
103499.818642
103499.81862
103499.818581
103499.818519
103499.818429
103499.818306
103499.783781
103499.78378
103499.783779
103499.783778
103499.783777
103499.783775
103499.783774
103499.783771
103499.783769
103499.783766
103499.783763
103499.78376
103499.783756
103499.783753
103499.783748
103499.783744
103499.783739
103499.783734
103499.783728
103499.783722
103499.783716
103499.783709
103499.783702
103499.783695
103499.783687
103499.783678
103499.78367
103499.78366
103499.783651
103499.783641
103499.78363
103499.783619
103499.783607
103499.783595
103499.783583
103499.78357
103499.783557
103499.783543
103499.783529
103499.783515
103499.7835
103499.783485
103499.783469
103499.783454
103499.783438
103499.783422
103499.783406
103499.78339
103499.783374
103499.783358
103499.783342
103499.783326
103499.78331
103499.783295
103499.783281
103499.783267
103499.783253
103499.78324
103499.783228
103499.783217
103499.783207
103499.783198
103499.78319
103499.783183
103499.783178
103499.783174
103499.783171
103499.783169
103499.783167
103499.783166
103499.783165
103499.783163
103499.783158
103499.78315
103499.783136
103499.783113
103499.783079
103499.783031
103499.782965
103499.782878
103499.78277
103499.74583
103499.745829
103499.745828
103499.745827
103499.745826
103499.745824
103499.745822
103499.74582
103499.745818
103499.745815
103499.745812
103499.745809
103499.745805
103499.745801
103499.745797
103499.745793
103499.745788
103499.745783
103499.745777
103499.745772
103499.745765
103499.745759
103499.745752
103499.745744
103499.745737
103499.745729
103499.74572
103499.745711
103499.745701
103499.745692
103499.745681
103499.74567
103499.745659
103499.745648
103499.745636
103499.745623
103499.74561
103499.745597
103499.745584
103499.74557
103499.745555
103499.745541
103499.745526
103499.745511
103499.745496
103499.745481
103499.745466
103499.74545
103499.745435
103499.74542
103499.745405
103499.74539
103499.745375
103499.745361
103499.745347
103499.745333
103499.74532
103499.745308
103499.745296
103499.745285
103499.745275
103499.745266
103499.745257
103499.74525
103499.745243
103499.745237
103499.745231
103499.745225
103499.74522
103499.745214
103499.745206
103499.745197
103499.745184
103499.745167
103499.745144
103499.745113
103499.745072
103499.74502
103499.744954
103499.744875
103499.744781
103499.70522
103499.705219
103499.705218
103499.705217
103499.705216
103499.705215
103499.705213
103499.705211
103499.705208
103499.705206
103499.705203
103499.7052
103499.705196
103499.705192
103499.705188
103499.705184
103499.705179
103499.705174
103499.705168
103499.705163
103499.705157
103499.70515
103499.705143
103499.705136
103499.705128
103499.70512
103499.705112
103499.705103
103499.705094
103499.705084
103499.705074
103499.705064
103499.705053
103499.705042
103499.70503
103499.705018
103499.705006
103499.704993
103499.70498
103499.704967
103499.704953
103499.70494
103499.704925
103499.704911
103499.704897
103499.704882
103499.704868
103499.704853
103499.704839
103499.704824
103499.70481
103499.704796
103499.704782
103499.704768
103499.704755
103499.704742
103499.70473
103499.704718
103499.704706
103499.704695
103499.704685
103499.704675
103499.704666
103499.704657
103499.704649
103499.70464
103499.704632
103499.704623
103499.704614
103499.704603
103499.70459
103499.704575
103499.704556
103499.704533
103499.704504
103499.704468
103499.704424
103499.704372
103499.704309
103499.704237
103499.704156
103499.661766
103499.661765
103499.661764
103499.661763
103499.661762
103499.661761
103499.661759
103499.661757
103499.661754
103499.661752
103499.661749
103499.661746
103499.661742
103499.661738
103499.661734
103499.66173
103499.661725
103499.66172
103499.661715
103499.661709
103499.661704
103499.661697
103499.661691
103499.661683
103499.661676
103499.661668
103499.66166
103499.661652
103499.661643
103499.661633
103499.661624
103499.661613
103499.661603
103499.661592
103499.661581
103499.66157
103499.661558
103499.661546
103499.661533
103499.66152
103499.661507
103499.661494
103499.661481
103499.661467
103499.661454
103499.66144
103499.661426
103499.661413
103499.661399
103499.661385
103499.661372
103499.661358
103499.661345
103499.661332
103499.661319
103499.661307
103499.661295
103499.661283
103499.661272
103499.661261
103499.66125
103499.66124
103499.66123
103499.66122
103499.66121
103499.661199
103499.661188
103499.661176
103499.661164
103499.661149
103499.661132
103499.661113
103499.661089
103499.661062
103499.66103
103499.660992
103499.660948
103499.660897
103499.660839
103499.660775
103499.660704
103499.615268
103499.615267
103499.615267
103499.615266
103499.615264
103499.615263
103499.615261
103499.615259
103499.615257
103499.615254
103499.615251
103499.615248
103499.615245
103499.615241
103499.615237
103499.615233
103499.615228
103499.615223
103499.615218
103499.615213
103499.615207
103499.615201
103499.615194
103499.615187
103499.61518
103499.615173
103499.615165
103499.615156
103499.615148
103499.615139
103499.615129
103499.61512
103499.61511
103499.615099
103499.615089
103499.615078
103499.615066
103499.615055
103499.615043
103499.615031
103499.615018
103499.615006
103499.614993
103499.614981
103499.614968
103499.614955
103499.614942
103499.614929
103499.614916
103499.614903
103499.61489
103499.614878
103499.614865
103499.614853
103499.614841
103499.614829
103499.614817
103499.614806
103499.614794
103499.614783
103499.614772
103499.614761
103499.61475
103499.614739
103499.614727
103499.614715
103499.614702
103499.614687
103499.614672
103499.614654
103499.614634
103499.614612
103499.614586
103499.614557
103499.614523
103499.614485
103499.614442
103499.614394
103499.614342
103499.614284
103499.614222
103499.565513
103499.565513
103499.565512
103499.565511
103499.56551
103499.565508
103499.565507
103499.565505
103499.565502
103499.5655
103499.565497
103499.565494
103499.565491
103499.565487
103499.565483
103499.565479
103499.565474
103499.56547
103499.565465
103499.565459
103499.565454
103499.565448
103499.565441
103499.565435
103499.565428
103499.56542
103499.565413
103499.565405
103499.565396
103499.565388
103499.565379
103499.565369
103499.56536
103499.56535
103499.56534
103499.565329
103499.565319
103499.565308
103499.565296
103499.565285
103499.565273
103499.565262
103499.56525
103499.565238
103499.565226
103499.565213
103499.565201
103499.565189
103499.565177
103499.565165
103499.565153
103499.565141
103499.565129
103499.565117
103499.565106
103499.565094
103499.565083
103499.565071
103499.56506
103499.565048
103499.565037
103499.565025
103499.565013
103499.565001
103499.564988
103499.564974
103499.56496
103499.564944
103499.564926
103499.564906
103499.564885
103499.564861
103499.564834
103499.564803
103499.56477
103499.564733
103499.564692
103499.564648
103499.5646
103499.564549
103499.564495
103499.512273
103499.512273
103499.512272
103499.512271
103499.51227
103499.512269
103499.512267
103499.512265
103499.512263
103499.51226
103499.512258
103499.512255
103499.512251
103499.512248
103499.512244
103499.51224
103499.512236
103499.512231
103499.512226
103499.512221
103499.512215
103499.51221
103499.512203
103499.512197
103499.51219
103499.512183
103499.512176
103499.512168
103499.51216
103499.512152
103499.512143
103499.512135
103499.512125
103499.512116
103499.512106
103499.512097
103499.512086
103499.512076
103499.512066
103499.512055
103499.512044
103499.512033
103499.512022
103499.512011
103499.511999
103499.511988
103499.511977
103499.511965
103499.511954
103499.511942
103499.511931
103499.51192
103499.511908
103499.511897
103499.511886
103499.511875
103499.511864
103499.511852
103499.511841
103499.511829
103499.511818
103499.511806
103499.511793
103499.51178
103499.511766
103499.511751
103499.511735
103499.511718
103499.511699
103499.511678
103499.511656
103499.511631
103499.511604
103499.511574
103499.511542
103499.511507
103499.511469
103499.511428
103499.511385
103499.51134
103499.511293
103499.455305
103499.455304
103499.455304
103499.455303
103499.455302
103499.4553
103499.455298
103499.455297
103499.455294
103499.455292
103499.455289
103499.455286
103499.455283
103499.45528
103499.455276
103499.455272
103499.455268
103499.455263
103499.455259
103499.455254
103499.455248
103499.455243
103499.455237
103499.455231
103499.455224
103499.455217
103499.45521
103499.455203
103499.455196
103499.455188
103499.45518
103499.455171
103499.455163
103499.455154
103499.455145
103499.455135
103499.455126
103499.455116
103499.455106
103499.455096
103499.455086
103499.455076
103499.455066
103499.455055
103499.455045
103499.455034
103499.455023
103499.455013
103499.455002
103499.454991
103499.454981
103499.45497
103499.454959
103499.454949
103499.454938
103499.454927
103499.454916
103499.454905
103499.454894
103499.454882
103499.45487
103499.454858
103499.454845
103499.454831
103499.454816
103499.454801
103499.454784
103499.454766
103499.454747
103499.454726
103499.454703
103499.454679
103499.454652
103499.454624
103499.454593
103499.454561
103499.454526
103499.454489
103499.454451
103499.454411
103499.454369
103499.394345
103499.394345
103499.394345
103499.394344
103499.394343
103499.394341
103499.39434
103499.394338
103499.394336
103499.394333
103499.394331
103499.394328
103499.394325
103499.394321
103499.394318
103499.394314
103499.39431
103499.394306
103499.394301
103499.394296
103499.394291
103499.394286
103499.39428
103499.394274
103499.394268
103499.394262
103499.394255
103499.394248
103499.394241
103499.394233
103499.394226
103499.394218
103499.39421
103499.394202
103499.394193
103499.394184
103499.394176
103499.394167
103499.394157
103499.394148
103499.394139
103499.394129
103499.39412
103499.39411
103499.3941
103499.394091
103499.394081
103499.394071
103499.394061
103499.394051
103499.394041
103499.394031
103499.394021
103499.394011
103499.394
103499.39399
103499.393979
103499.393968
103499.393957
103499.393945
103499.393933
103499.393921
103499.393908
103499.393894
103499.393879
103499.393863
103499.393846
103499.393828
103499.393809
103499.393788
103499.393766
103499.393743
103499.393718
103499.393691
103499.393662
103499.393633
103499.393601
103499.393568
103499.393534
103499.393499
103499.393463
103499.329117
103499.329116
103499.329116
103499.329115
103499.329114
103499.329112
103499.329111
103499.329109
103499.329107
103499.329105
103499.329102
103499.3291
103499.329097
103499.329093
103499.32909
103499.329086
103499.329082
103499.329078
103499.329074
103499.329069
103499.329064
103499.329059
103499.329054
103499.329048
103499.329042
103499.329036
103499.32903
103499.329024
103499.329017
103499.32901
103499.329003
103499.328996
103499.328988
103499.32898
103499.328972
103499.328964
103499.328956
103499.328948
103499.32894
103499.328931
103499.328922
103499.328914
103499.328905
103499.328896
103499.328887
103499.328878
103499.328869
103499.32886
103499.328851
103499.328841
103499.328832
103499.328823
103499.328813
103499.328804
103499.328794
103499.328784
103499.328773
103499.328763
103499.328752
103499.32874
103499.328728
103499.328716
103499.328703
103499.328689
103499.328674
103499.328659
103499.328642
103499.328625
103499.328606
103499.328586
103499.328565
103499.328543
103499.32852
103499.328495
103499.328469
103499.328442
103499.328414
103499.328385
103499.328355
103499.328324
103499.328292
103499.259319
103499.259319
103499.259318
103499.259317
103499.259316
103499.259315
103499.259313
103499.259312
103499.25931
103499.259308
103499.259305
103499.259303
103499.2593
103499.259297
103499.259293
103499.25929
103499.259286
103499.259282
103499.259278
103499.259274
103499.259269
103499.259264
103499.259259
103499.259254
103499.259248
103499.259243
103499.259237
103499.259231
103499.259225
103499.259218
103499.259211
103499.259205
103499.259198
103499.259191
103499.259183
103499.259176
103499.259169
103499.259161
103499.259153
103499.259146
103499.259138
103499.25913
103499.259122
103499.259114
103499.259106
103499.259097
103499.259089
103499.259081
103499.259072
103499.259064
103499.259055
103499.259046
103499.259037
103499.259028
103499.259019
103499.259009
103499.259
103499.258989
103499.258979
103499.258968
103499.258956
103499.258944
103499.258931
103499.258918
103499.258904
103499.258889
103499.258873
103499.258856
103499.258839
103499.25882
103499.258801
103499.25878
103499.258759
103499.258736
103499.258713
103499.258689
103499.258664
103499.258638
103499.258612
103499.258585
103499.258557
103499.184632
103499.184632
103499.184631
103499.184631
103499.18463
103499.184628
103499.184627
103499.184625
103499.184624
103499.184621
103499.184619
103499.184617
103499.184614
103499.184611
103499.184608
103499.184605
103499.184601
103499.184597
103499.184593
103499.184589
103499.184585
103499.18458
103499.184576
103499.184571
103499.184566
103499.184561
103499.184555
103499.184549
103499.184544
103499.184538
103499.184532
103499.184526
103499.184519
103499.184513
103499.184506
103499.1845
103499.184493
103499.184486
103499.184479
103499.184472
103499.184465
103499.184458
103499.184451
103499.184443
103499.184436
103499.184429
103499.184421
103499.184413
103499.184406
103499.184398
103499.18439
103499.184382
103499.184374
103499.184365
103499.184356
103499.184347
103499.184338
103499.184328
103499.184318
103499.184308
103499.184297
103499.184285
103499.184273
103499.184261
103499.184247
103499.184233
103499.184219
103499.184203
103499.184187
103499.18417
103499.184152
103499.184134
103499.184114
103499.184094
103499.184074
103499.184052
103499.184031
103499.184008
103499.183985
103499.183962
103499.183938
103499.104714
103499.104714
103499.104714
103499.104713
103499.104712
103499.104711
103499.104709
103499.104708
103499.104706
103499.104704
103499.104702
103499.1047
103499.104697
103499.104694
103499.104691
103499.104688
103499.104685
103499.104681
103499.104678
103499.104674
103499.10467
103499.104666
103499.104661
103499.104657
103499.104652
103499.104647
103499.104642
103499.104637
103499.104632
103499.104627
103499.104621
103499.104616
103499.10461
103499.104604
103499.104598
103499.104592
103499.104586
103499.10458
103499.104574
103499.104568
103499.104562
103499.104555
103499.104549
103499.104542
103499.104536
103499.104529
103499.104522
103499.104515
103499.104509
103499.104501
103499.104494
103499.104487
103499.104479
103499.104472
103499.104463
103499.104455
103499.104447
103499.104438
103499.104428
103499.104418
103499.104408
103499.104398
103499.104386
103499.104375
103499.104362
103499.10435
103499.104336
103499.104322
103499.104307
103499.104292
103499.104276
103499.10426
103499.104243
103499.104225
103499.104207
103499.104189
103499.10417
103499.104151
103499.104131
103499.104111
103499.104091
103499.019199
103499.019199
103499.019198
103499.019197
103499.019197
103499.019195
103499.019194
103499.019193
103499.019191
103499.019189
103499.019187
103499.019185
103499.019183
103499.01918
103499.019177
103499.019174
103499.019171
103499.019168
103499.019165
103499.019161
103499.019157
103499.019154
103499.01915
103499.019146
103499.019141
103499.019137
103499.019133
103499.019128
103499.019123
103499.019118
103499.019114
103499.019109
103499.019104
103499.019098
103499.019093
103499.019088
103499.019083
103499.019077
103499.019072
103499.019066
103499.019061
103499.019055
103499.01905
103499.019044
103499.019038
103499.019032
103499.019026
103499.01902
103499.019014
103499.019008
103499.019002
103499.018995
103499.018988
103499.018981
103499.018974
103499.018966
103499.018958
103499.01895
103499.018942
103499.018933
103499.018924
103499.018914
103499.018904
103499.018893
103499.018882
103499.018871
103499.018859
103499.018846
103499.018834
103499.01882
103499.018806
103499.018792
103499.018777
103499.018762
103499.018747
103499.018731
103499.018715
103499.018698
103499.018682
103499.018665
103499.018648
103498.927693
103498.927693
103498.927693
103498.927692
103498.927691
103498.92769
103498.927689
103498.927688
103498.927686
103498.927685
103498.927683
103498.927681
103498.927678
103498.927676
103498.927674
103498.927671
103498.927668
103498.927665
103498.927662
103498.927659
103498.927656
103498.927652
103498.927649
103498.927645
103498.927641
103498.927637
103498.927633
103498.927629
103498.927625
103498.927621
103498.927617
103498.927612
103498.927608
103498.927603
103498.927599
103498.927594
103498.92759
103498.927585
103498.92758
103498.927576
103498.927571
103498.927566
103498.927561
103498.927556
103498.927552
103498.927546
103498.927541
103498.927536
103498.927531
103498.927525
103498.92752
103498.927514
103498.927508
103498.927502
103498.927495
103498.927489
103498.927482
103498.927474
103498.927467
103498.927459
103498.927451
103498.927442
103498.927433
103498.927424
103498.927415
103498.927405
103498.927394
103498.927383
103498.927372
103498.927361
103498.927349
103498.927337
103498.927325
103498.927312
103498.927299
103498.927286
103498.927272
103498.927259
103498.927245
103498.927231
103498.927217
103498.829779
103498.829779
103498.829778
103498.829778
103498.829777
103498.829776
103498.829775
103498.829774
103498.829772
103498.829771
103498.829769
103498.829767
103498.829765
103498.829763
103498.829761
103498.829758
103498.829756
103498.829753
103498.82975
103498.829748
103498.829745
103498.829742
103498.829738
103498.829735
103498.829732
103498.829728
103498.829725
103498.829722
103498.829718
103498.829714
103498.829711
103498.829707
103498.829703
103498.829699
103498.829696
103498.829692
103498.829688
103498.829684
103498.82968
103498.829676
103498.829672
103498.829668
103498.829664
103498.82966
103498.829656
103498.829652
103498.829647
103498.829643
103498.829638
103498.829634
103498.829629
103498.829624
103498.829619
103498.829614
103498.829608
103498.829602
103498.829596
103498.82959
103498.829584
103498.829577
103498.82957
103498.829563
103498.829555
103498.829547
103498.829539
103498.829531
103498.829522
103498.829513
103498.829504
103498.829494
103498.829484
103498.829474
103498.829464
103498.829454
103498.829443
103498.829432
103498.829421
103498.82941
103498.829399
103498.829388
103498.829377
103498.725006
103498.725006
103498.725005
103498.725005
103498.725004
103498.725003
103498.725002
103498.725001
103498.725
103498.724999
103498.724997
103498.724995
103498.724994
103498.724992
103498.72499
103498.724988
103498.724985
103498.724983
103498.724981
103498.724978
103498.724976
103498.724973
103498.72497
103498.724968
103498.724965
103498.724962
103498.724959
103498.724956
103498.724953
103498.72495
103498.724947
103498.724944
103498.724941
103498.724938
103498.724935
103498.724931
103498.724928
103498.724925
103498.724922
103498.724919
103498.724916
103498.724912
103498.724909
103498.724906
103498.724902
103498.724899
103498.724895
103498.724892
103498.724888
103498.724884
103498.72488
103498.724876
103498.724872
103498.724868
103498.724863
103498.724858
103498.724854
103498.724848
103498.724843
103498.724838
103498.724832
103498.724826
103498.72482
103498.724813
103498.724807
103498.7248
103498.724793
103498.724785
103498.724778
103498.72477
103498.724762
103498.724754
103498.724746
103498.724738
103498.72473
103498.724721
103498.724712
103498.724704
103498.724695
103498.724686
103498.724677
103498.612894
103498.612894
103498.612894
103498.612893
103498.612893
103498.612892
103498.612891
103498.61289
103498.612889
103498.612888
103498.612887
103498.612885
103498.612884
103498.612882
103498.61288
103498.612878
103498.612877
103498.612875
103498.612873
103498.61287
103498.612868
103498.612866
103498.612864
103498.612862
103498.612859
103498.612857
103498.612855
103498.612852
103498.61285
103498.612847
103498.612845
103498.612842
103498.61284
103498.612838
103498.612835
103498.612833
103498.61283
103498.612828
103498.612825
103498.612823
103498.612821
103498.612818
103498.612816
103498.612813
103498.61281
103498.612808
103498.612805
103498.612802
103498.612799
103498.612796
103498.612793
103498.61279
103498.612787
103498.612784
103498.61278
103498.612776
103498.612773
103498.612769
103498.612764
103498.61276
103498.612756
103498.612751
103498.612746
103498.612741
103498.612736
103498.612731
103498.612725
103498.61272
103498.612714
103498.612708
103498.612702
103498.612696
103498.61269
103498.612683
103498.612677
103498.61267
103498.612664
103498.612657
103498.612651
103498.612644
103498.612637
103498.49293
103498.49293
103498.49293
103498.49293
103498.492929
103498.492928
103498.492928
103498.492927
103498.492926
103498.492925
103498.492924
103498.492922
103498.492921
103498.49292
103498.492918
103498.492917
103498.492915
103498.492914
103498.492912
103498.49291
103498.492909
103498.492907
103498.492905
103498.492903
103498.492901
103498.4929
103498.492898
103498.492896
103498.492894
103498.492892
103498.49289
103498.492889
103498.492887
103498.492885
103498.492883
103498.492882
103498.49288
103498.492878
103498.492876
103498.492875
103498.492873
103498.492871
103498.492869
103498.492868
103498.492866
103498.492864
103498.492862
103498.49286
103498.492858
103498.492856
103498.492854
103498.492852
103498.492849
103498.492847
103498.492844
103498.492842
103498.492839
103498.492836
103498.492833
103498.49283
103498.492826
103498.492823
103498.49282
103498.492816
103498.492812
103498.492808
103498.492805
103498.4928
103498.492796
103498.492792
103498.492788