/*--------------------------------*- C++ -*----------------------------------*\
| =========                 |                                                 |
| \\      /  F ield         | OpenFOAM: The Open Source CFD Toolbox           |
|  \\    /   O peration     | Version:  2112                                  |
|   \\  /    A nd           | Website:  www.openfoam.com                      |
|    \\/     M anipulation  |                                                 |
\*---------------------------------------------------------------------------*/
FoamFile
{
    version     2.0;
    format      ascii;
    arch        "LSB;label=32;scalar=64";
    class       volScalarField;
    location    "0.4";
    object      p_rgh;
}
// * * * * * * * * * * * * * * * * * * * * * * * * * * * * * * * * * * * * * //

dimensions      [1 -1 -2 0 0 0 0];

internalField   nonuniform List<scalar> 
12013
(
103499.999695
103499.999693
103499.999692
103499.999691
103499.999689
103499.999688
103499.999686
103499.999684
103499.999681
103499.999678
103499.999675
103499.999672
103499.999668
103499.999664
103499.99966
103499.999655
103499.99965
103499.999645
103499.999639
103499.999633
103499.999626
103499.999619
103499.999611
103499.999603
103499.999595
103499.999586
103499.999576
103499.999566
103499.999555
103499.999544
103499.999532
103499.999519
103499.999506
103499.999492
103499.999478
103499.999463
103499.999447
103499.999431
103499.999414
103499.999396
103499.999378
103499.999359
103499.99934
103499.99932
103499.9993
103499.99928
103499.999258
103499.999237
103499.999215
103499.999194
103499.999172
103499.99915
103499.999128
103499.999106
103499.999085
103499.999064
103499.999044
103499.999024
103499.999005
103499.998988
103499.998972
103499.998958
103499.998946
103499.998936
103499.99893
103499.998927
103499.998928
103499.998934
103499.998947
103499.998966
103499.998995
103499.999035
103499.999089
103499.999161
103499.999256
103499.999382
103499.99955
103499.999773
103500.000083
103500.000562
103500.001299
103499.999694
103499.999693
103499.999692
103499.999691
103499.999689
103499.999688
103499.999686
103499.999684
103499.999681
103499.999679
103499.999675
103499.999672
103499.999668
103499.999664
103499.99966
103499.999655
103499.99965
103499.999645
103499.999639
103499.999633
103499.999626
103499.999619
103499.999611
103499.999603
103499.999595
103499.999586
103499.999576
103499.999566
103499.999555
103499.999544
103499.999532
103499.999519
103499.999506
103499.999492
103499.999478
103499.999463
103499.999447
103499.999431
103499.999414
103499.999396
103499.999378
103499.999359
103499.99934
103499.999321
103499.9993
103499.99928
103499.999259
103499.999237
103499.999216
103499.999194
103499.999172
103499.99915
103499.999128
103499.999106
103499.999085
103499.999064
103499.999043
103499.999024
103499.999005
103499.998987
103499.998971
103499.998957
103499.998945
103499.998935
103499.998928
103499.998924
103499.998925
103499.99893
103499.998941
103499.99896
103499.998986
103499.999023
103499.999072
103499.999137
103499.999222
103499.99933
103499.999467
103499.999638
103499.999847
103500.000121
103500.000439
103499.999694
103499.999693
103499.999692
103499.999691
103499.99969
103499.999688
103499.999686
103499.999684
103499.999681
103499.999679
103499.999675
103499.999672
103499.999668
103499.999664
103499.99966
103499.999655
103499.99965
103499.999645
103499.999639
103499.999633
103499.999626
103499.999619
103499.999611
103499.999603
103499.999595
103499.999586
103499.999576
103499.999566
103499.999555
103499.999544
103499.999532
103499.999519
103499.999506
103499.999492
103499.999478
103499.999463
103499.999447
103499.999431
103499.999414
103499.999397
103499.999378
103499.99936
103499.999341
103499.999321
103499.999301
103499.99928
103499.999259
103499.999238
103499.999216
103499.999194
103499.999172
103499.99915
103499.999128
103499.999106
103499.999085
103499.999064
103499.999043
103499.999023
103499.999004
103499.998986
103499.99897
103499.998955
103499.998942
103499.998932
103499.998924
103499.998919
103499.998918
103499.998922
103499.998931
103499.998946
103499.998968
103499.998999
103499.99904
103499.999092
103499.999158
103499.999239
103499.999332
103499.999435
103499.999531
103499.999597
103499.999562
103499.999694
103499.999693
103499.999692
103499.999691
103499.99969
103499.999688
103499.999686
103499.999684
103499.999681
103499.999679
103499.999675
103499.999672
103499.999668
103499.999664
103499.99966
103499.999655
103499.99965
103499.999645
103499.999639
103499.999633
103499.999626
103499.999619
103499.999612
103499.999604
103499.999595
103499.999586
103499.999576
103499.999566
103499.999555
103499.999544
103499.999532
103499.99952
103499.999507
103499.999493
103499.999478
103499.999463
103499.999448
103499.999432
103499.999415
103499.999397
103499.999379
103499.99936
103499.999341
103499.999321
103499.999301
103499.99928
103499.999259
103499.999238
103499.999216
103499.999194
103499.999172
103499.99915
103499.999128
103499.999106
103499.999084
103499.999063
103499.999042
103499.999022
103499.999003
103499.998984
103499.998967
103499.998952
103499.998938
103499.998926
103499.998917
103499.998911
103499.998908
103499.998909
103499.998914
103499.998924
103499.99894
103499.998963
103499.998992
103499.999029
103499.999072
103499.999121
103499.999171
103499.999211
103499.999226
103499.999186
103499.999044
103499.999694
103499.999693
103499.999692
103499.999691
103499.99969
103499.999688
103499.999686
103499.999684
103499.999681
103499.999679
103499.999676
103499.999672
103499.999669
103499.999665
103499.99966
103499.999656
103499.99965
103499.999645
103499.999639
103499.999633
103499.999626
103499.999619
103499.999612
103499.999604
103499.999595
103499.999586
103499.999577
103499.999567
103499.999556
103499.999545
103499.999533
103499.99952
103499.999507
103499.999493
103499.999479
103499.999464
103499.999448
103499.999432
103499.999415
103499.999398
103499.99938
103499.999361
103499.999342
103499.999322
103499.999302
103499.999281
103499.99926
103499.999239
103499.999217
103499.999195
103499.999173
103499.999151
103499.999128
103499.999106
103499.999084
103499.999062
103499.999041
103499.999021
103499.999001
103499.998982
103499.998964
103499.998947
103499.998932
103499.998919
103499.998908
103499.998899
103499.998894
103499.998891
103499.998891
103499.998895
103499.998904
103499.998916
103499.998932
103499.998951
103499.998971
103499.99899
103499.999
103499.998995
103499.998958
103499.998873
103499.998713
103499.999694
103499.999693
103499.999692
103499.999691
103499.99969
103499.999688
103499.999686
103499.999684
103499.999681
103499.999679
103499.999676
103499.999672
103499.999669
103499.999665
103499.99966
103499.999656
103499.999651
103499.999645
103499.999639
103499.999633
103499.999627
103499.99962
103499.999612
103499.999604
103499.999596
103499.999587
103499.999577
103499.999567
103499.999556
103499.999545
103499.999533
103499.999521
103499.999508
103499.999494
103499.99948
103499.999465
103499.999449
103499.999433
103499.999416
103499.999399
103499.999381
103499.999362
103499.999343
103499.999323
103499.999303
103499.999282
103499.999261
103499.99924
103499.999218
103499.999196
103499.999173
103499.999151
103499.999129
103499.999106
103499.999084
103499.999062
103499.99904
103499.999019
103499.998998
103499.998978
103499.998959
103499.998942
103499.998925
103499.99891
103499.998896
103499.998885
103499.998875
103499.998868
103499.998863
103499.99886
103499.998859
103499.99886
103499.998862
103499.998864
103499.998863
103499.998855
103499.998836
103499.998798
103499.998733
103499.998629
103499.998475
103499.999694
103499.999693
103499.999692
103499.999691
103499.99969
103499.999688
103499.999686
103499.999684
103499.999682
103499.999679
103499.999676
103499.999672
103499.999669
103499.999665
103499.999661
103499.999656
103499.999651
103499.999646
103499.99964
103499.999634
103499.999627
103499.99962
103499.999613
103499.999605
103499.999596
103499.999587
103499.999578
103499.999568
103499.999557
103499.999546
103499.999534
103499.999522
103499.999509
103499.999495
103499.999481
103499.999466
103499.99945
103499.999434
103499.999418
103499.9994
103499.999382
103499.999363
103499.999344
103499.999325
103499.999304
103499.999284
103499.999262
103499.999241
103499.999219
103499.999197
103499.999174
103499.999152
103499.999129
103499.999106
103499.999083
103499.999061
103499.999038
103499.999016
103499.998995
103499.998974
103499.998954
103499.998934
103499.998916
103499.998898
103499.998882
103499.998867
103499.998853
103499.998841
103499.99883
103499.998819
103499.998809
103499.998799
103499.998788
103499.998773
103499.998754
103499.998726
103499.998686
103499.998629
103499.998548
103499.99844
103499.9983
103499.999694
103499.999693
103499.999692
103499.999691
103499.99969
103499.999688
103499.999686
103499.999684
103499.999682
103499.999679
103499.999676
103499.999673
103499.999669
103499.999665
103499.999661
103499.999656
103499.999651
103499.999646
103499.99964
103499.999634
103499.999627
103499.999621
103499.999613
103499.999605
103499.999597
103499.999588
103499.999578
103499.999569
103499.999558
103499.999547
103499.999535
103499.999523
103499.99951
103499.999496
103499.999482
103499.999467
103499.999452
103499.999436
103499.999419
103499.999402
103499.999384
103499.999365
103499.999346
103499.999326
103499.999306
103499.999285
103499.999264
103499.999242
103499.99922
103499.999198
103499.999175
103499.999152
103499.999129
103499.999106
103499.999083
103499.99906
103499.999037
103499.999014
103499.998991
103499.998969
103499.998947
103499.998926
103499.998905
103499.998885
103499.998866
103499.998847
103499.998828
103499.998811
103499.998793
103499.998775
103499.998756
103499.998735
103499.998712
103499.998684
103499.998651
103499.998608
103499.998554
103499.998486
103499.9984
103499.998294
103499.998168
103499.999694
103499.999693
103499.999692
103499.999691
103499.99969
103499.999688
103499.999686
103499.999684
103499.999682
103499.999679
103499.999676
103499.999673
103499.999669
103499.999665
103499.999661
103499.999657
103499.999652
103499.999646
103499.999641
103499.999635
103499.999628
103499.999621
103499.999614
103499.999606
103499.999598
103499.999589
103499.999579
103499.99957
103499.999559
103499.999548
103499.999536
103499.999524
103499.999511
103499.999498
103499.999484
103499.999469
103499.999454
103499.999438
103499.999421
103499.999404
103499.999386
103499.999367
103499.999348
103499.999329
103499.999308
103499.999287
103499.999266
103499.999244
103499.999222
103499.9992
103499.999177
103499.999153
103499.99913
103499.999106
103499.999082
103499.999059
103499.999035
103499.999011
103499.998987
103499.998963
103499.99894
103499.998916
103499.998893
103499.99887
103499.998847
103499.998824
103499.998801
103499.998778
103499.998754
103499.998729
103499.998702
103499.998672
103499.998639
103499.998601
103499.998557
103499.998504
103499.998442
103499.998368
103499.998282
103499.998182
103499.998069
103499.999694
103499.999693
103499.999692
103499.999691
103499.99969
103499.999688
103499.999687
103499.999684
103499.999682
103499.999679
103499.999676
103499.999673
103499.99967
103499.999666
103499.999661
103499.999657
103499.999652
103499.999647
103499.999641
103499.999635
103499.999629
103499.999622
103499.999615
103499.999607
103499.999599
103499.99959
103499.999581
103499.999571
103499.99956
103499.99955
103499.999538
103499.999526
103499.999513
103499.9995
103499.999486
103499.999471
103499.999456
103499.99944
103499.999424
103499.999406
103499.999388
103499.99937
103499.999351
103499.999331
103499.999311
103499.99929
103499.999269
103499.999247
103499.999225
103499.999202
103499.999178
103499.999155
103499.999131
103499.999107
103499.999082
103499.999057
103499.999033
103499.999008
103499.998982
103499.998957
103499.998932
103499.998906
103499.99888
103499.998854
103499.998828
103499.998801
103499.998774
103499.998745
103499.998715
103499.998684
103499.99865
103499.998613
103499.998572
103499.998526
103499.998474
103499.998416
103499.998349
103499.998274
103499.99819
103499.998097
103499.997995
103499.999694
103499.999693
103499.999692
103499.999691
103499.99969
103499.999688
103499.999687
103499.999685
103499.999682
103499.99968
103499.999677
103499.999673
103499.99967
103499.999666
103499.999662
103499.999657
103499.999653
103499.999647
103499.999642
103499.999636
103499.99963
103499.999623
103499.999616
103499.999608
103499.9996
103499.999591
103499.999582
103499.999572
103499.999562
103499.999551
103499.99954
103499.999528
103499.999515
103499.999502
103499.999488
103499.999474
103499.999459
103499.999443
103499.999426
103499.999409
103499.999392
103499.999373
103499.999354
103499.999335
103499.999314
103499.999293
103499.999272
103499.99925
103499.999227
103499.999204
103499.999181
103499.999157
103499.999132
103499.999108
103499.999082
103499.999057
103499.999031
103499.999005
103499.998978
103499.998951
103499.998924
103499.998896
103499.998867
103499.998838
103499.998809
103499.998778
103499.998747
103499.998713
103499.998679
103499.998642
103499.998602
103499.998559
103499.998512
103499.998461
103499.998405
103499.998343
103499.998275
103499.998201
103499.99812
103499.998033
103499.997941
103499.999694
103499.999693
103499.999692
103499.999691
103499.99969
103499.999689
103499.999687
103499.999685
103499.999683
103499.99968
103499.999677
103499.999674
103499.99967
103499.999667
103499.999662
103499.999658
103499.999653
103499.999648
103499.999643
103499.999637
103499.999631
103499.999624
103499.999617
103499.999609
103499.999601
103499.999593
103499.999584
103499.999574
103499.999564
103499.999553
103499.999542
103499.99953
103499.999518
103499.999505
103499.999491
103499.999477
103499.999462
103499.999446
103499.99943
103499.999413
103499.999395
103499.999377
103499.999358
103499.999338
103499.999318
103499.999297
103499.999276
103499.999254
103499.999231
103499.999208
103499.999184
103499.999159
103499.999134
103499.999109
103499.999083
103499.999057
103499.99903
103499.999002
103499.998974
103499.998945
103499.998916
103499.998886
103499.998855
103499.998824
103499.998791
103499.998757
103499.998722
103499.998684
103499.998645
103499.998604
103499.99856
103499.998513
103499.998463
103499.998408
103499.99835
103499.998287
103499.998219
103499.998147
103499.99807
103499.997989
103499.997905
103499.999694
103499.999693
103499.999693
103499.999692
103499.99969
103499.999689
103499.999687
103499.999685
103499.999683
103499.99968
103499.999677
103499.999674
103499.999671
103499.999667
103499.999663
103499.999659
103499.999654
103499.999649
103499.999644
103499.999638
103499.999632
103499.999625
103499.999618
103499.999611
103499.999603
103499.999595
103499.999586
103499.999576
103499.999566
103499.999556
103499.999545
103499.999533
103499.999521
103499.999508
103499.999495
103499.999481
103499.999466
103499.99945
103499.999434
103499.999417
103499.9994
103499.999382
103499.999363
103499.999343
103499.999323
103499.999302
103499.999281
103499.999258
103499.999235
103499.999212
103499.999188
103499.999163
103499.999137
103499.999111
103499.999085
103499.999057
103499.999029
103499.999
103499.998971
103499.998941
103499.99891
103499.998878
103499.998845
103499.998811
103499.998775
103499.998738
103499.9987
103499.99866
103499.998618
103499.998573
103499.998526
103499.998476
103499.998424
103499.998368
103499.998309
103499.998246
103499.99818
103499.99811
103499.998038
103499.997962
103499.997885
103499.999694
103499.999693
103499.999693
103499.999692
103499.999691
103499.999689
103499.999687
103499.999686
103499.999683
103499.999681
103499.999678
103499.999675
103499.999672
103499.999668
103499.999664
103499.99966
103499.999655
103499.99965
103499.999645
103499.999639
103499.999633
103499.999627
103499.99962
103499.999613
103499.999605
103499.999597
103499.999588
103499.999579
103499.999569
103499.999559
103499.999548
103499.999537
103499.999525
103499.999512
103499.999499
103499.999485
103499.99947
103499.999455
103499.999439
103499.999422
103499.999405
103499.999387
103499.999368
103499.999349
103499.999329
103499.999308
103499.999286
103499.999264
103499.999241
103499.999217
103499.999193
103499.999168
103499.999142
103499.999115
103499.999088
103499.999059
103499.99903
103499.999
103499.99897
103499.998938
103499.998905
103499.998872
103499.998837
103499.998801
103499.998763
103499.998724
103499.998684
103499.998641
103499.998597
103499.99855
103499.998501
103499.99845
103499.998397
103499.99834
103499.998282
103499.99822
103499.998156
103499.99809
103499.998022
103499.997951
103499.997879
103499.999694
103499.999694
103499.999693
103499.999692
103499.999691
103499.99969
103499.999688
103499.999686
103499.999684
103499.999681
103499.999679
103499.999676
103499.999672
103499.999669
103499.999665
103499.999661
103499.999656
103499.999651
103499.999646
103499.999641
103499.999635
103499.999629
103499.999622
103499.999615
103499.999607
103499.999599
103499.999591
103499.999582
103499.999572
103499.999562
103499.999552
103499.999541
103499.999529
103499.999517
103499.999504
103499.99949
103499.999476
103499.99946
103499.999445
103499.999428
103499.999411
103499.999393
103499.999375
103499.999356
103499.999335
103499.999315
103499.999293
103499.999271
103499.999248
103499.999224
103499.999199
103499.999174
103499.999147
103499.99912
103499.999092
103499.999063
103499.999033
103499.999003
103499.998971
103499.998938
103499.998904
103499.998869
103499.998833
103499.998795
103499.998756
103499.998716
103499.998673
103499.99863
103499.998584
103499.998536
103499.998487
103499.998435
103499.998382
103499.998326
103499.998269
103499.998209
103499.998148
103499.998085
103499.998021
103499.997955
103499.997888
103499.999694
103499.999694
103499.999693
103499.999692
103499.999691
103499.99969
103499.999688
103499.999686
103499.999684
103499.999682
103499.999679
103499.999676
103499.999673
103499.99967
103499.999666
103499.999662
103499.999658
103499.999653
103499.999648
103499.999643
103499.999637
103499.999631
103499.999624
103499.999618
103499.99961
103499.999602
103499.999594
103499.999585
103499.999576
103499.999566
103499.999556
103499.999545
103499.999534
103499.999522
103499.999509
103499.999496
103499.999482
103499.999467
103499.999451
103499.999435
103499.999419
103499.999401
103499.999383
103499.999363
103499.999344
103499.999323
103499.999301
103499.999279
103499.999256
103499.999232
103499.999207
103499.999181
103499.999155
103499.999127
103499.999099
103499.99907
103499.999039
103499.999008
103499.998975
103499.998942
103499.998907
103499.998871
103499.998834
103499.998795
103499.998755
103499.998714
103499.998671
103499.998626
103499.99858
103499.998533
103499.998483
103499.998432
103499.99838
103499.998326
103499.99827
103499.998213
103499.998154
103499.998095
103499.998034
103499.997973
103499.997911
103499.999694
103499.999694
103499.999694
103499.999693
103499.999692
103499.99969
103499.999689
103499.999687
103499.999685
103499.999683
103499.99968
103499.999677
103499.999674
103499.999671
103499.999667
103499.999663
103499.999659
103499.999655
103499.99965
103499.999645
103499.999639
103499.999633
103499.999627
103499.99962
103499.999613
103499.999606
103499.999598
103499.99959
103499.999581
103499.999571
103499.999561
103499.999551
103499.999539
103499.999528
103499.999515
103499.999502
103499.999489
103499.999474
103499.999459
103499.999443
103499.999427
103499.99941
103499.999392
103499.999373
103499.999353
103499.999333
103499.999311
103499.999289
103499.999266
103499.999242
103499.999217
103499.999192
103499.999165
103499.999137
103499.999109
103499.999079
103499.999048
103499.999017
103499.998984
103499.99895
103499.998915
103499.998878
103499.99884
103499.998802
103499.998761
103499.99872
103499.998677
103499.998633
103499.998587
103499.99854
103499.998491
103499.998442
103499.998391
103499.998338
103499.998285
103499.998231
103499.998175
103499.998119
103499.998062
103499.998005
103499.997947
103499.999695
103499.999695
103499.999694
103499.999693
103499.999692
103499.999691
103499.99969
103499.999688
103499.999686
103499.999684
103499.999681
103499.999678
103499.999675
103499.999672
103499.999669
103499.999665
103499.999661
103499.999657
103499.999652
103499.999647
103499.999642
103499.999636
103499.99963
103499.999624
103499.999617
103499.99961
103499.999602
103499.999594
103499.999586
103499.999576
103499.999567
103499.999557
103499.999546
103499.999535
103499.999523
103499.99951
103499.999497
103499.999483
103499.999468
103499.999453
103499.999437
103499.99942
103499.999402
103499.999384
103499.999364
103499.999344
103499.999323
103499.999301
103499.999278
103499.999255
103499.99923
103499.999204
103499.999178
103499.99915
103499.999122
103499.999092
103499.999061
103499.99903
103499.998997
103499.998963
103499.998928
103499.998891
103499.998854
103499.998815
103499.998775
103499.998734
103499.998692
103499.998649
103499.998604
103499.998558
103499.998511
103499.998463
103499.998414
103499.998364
103499.998314
103499.998262
103499.99821
103499.998157
103499.998104
103499.998051
103499.997997
103499.999695
103499.999695
103499.999695
103499.999694
103499.999693
103499.999692
103499.99969
103499.999689
103499.999687
103499.999685
103499.999682
103499.99968
103499.999677
103499.999674
103499.99967
103499.999667
103499.999663
103499.999659
103499.999655
103499.99965
103499.999645
103499.999639
103499.999634
103499.999628
103499.999621
103499.999614
103499.999607
103499.999599
103499.999591
103499.999582
103499.999573
103499.999563
103499.999553
103499.999542
103499.999531
103499.999519
103499.999506
103499.999492
103499.999478
103499.999463
103499.999448
103499.999431
103499.999414
103499.999396
103499.999377
103499.999358
103499.999337
103499.999315
103499.999293
103499.99927
103499.999246
103499.99922
103499.999194
103499.999167
103499.999139
103499.999109
103499.999079
103499.999048
103499.999015
103499.998982
103499.998947
103499.998912
103499.998875
103499.998837
103499.998798
103499.998758
103499.998717
103499.998675
103499.998632
103499.998588
103499.998543
103499.998497
103499.998451
103499.998404
103499.998356
103499.998308
103499.998259
103499.99821
103499.99816
103499.99811
103499.998061
103499.999696
103499.999696
103499.999695
103499.999695
103499.999694
103499.999693
103499.999691
103499.99969
103499.999688
103499.999686
103499.999684
103499.999681
103499.999678
103499.999676
103499.999672
103499.999669
103499.999665
103499.999662
103499.999657
103499.999653
103499.999648
103499.999643
103499.999638
103499.999632
103499.999626
103499.999619
103499.999613
103499.999605
103499.999597
103499.999589
103499.99958
103499.999571
103499.999561
103499.999551
103499.99954
103499.999528
103499.999516
103499.999503
103499.99949
103499.999475
103499.99946
103499.999445
103499.999428
103499.999411
103499.999392
103499.999373
103499.999353
103499.999332
103499.999311
103499.999288
103499.999264
103499.99924
103499.999214
103499.999188
103499.99916
103499.999132
103499.999102
103499.999071
103499.99904
103499.999007
103499.998974
103499.998939
103499.998904
103499.998867
103499.99883
103499.998791
103499.998752
103499.998712
103499.998671
103499.998629
103499.998587
103499.998544
103499.9985
103499.998456
103499.998411
103499.998366
103499.998321
103499.998275
103499.998229
103499.998184
103499.998138
103499.999697
103499.999696
103499.999696
103499.999695
103499.999695
103499.999693
103499.999692
103499.999691
103499.999689
103499.999687
103499.999685
103499.999683
103499.99968
103499.999678
103499.999675
103499.999671
103499.999668
103499.999664
103499.999661
103499.999656
103499.999652
103499.999647
103499.999642
103499.999637
103499.999631
103499.999625
103499.999619
103499.999612
103499.999604
103499.999597
103499.999589
103499.99958
103499.999571
103499.999561
103499.99955
103499.999539
103499.999528
103499.999516
103499.999503
103499.999489
103499.999475
103499.99946
103499.999444
103499.999427
103499.99941
103499.999391
103499.999372
103499.999352
103499.999331
103499.999309
103499.999287
103499.999263
103499.999238
103499.999213
103499.999186
103499.999159
103499.99913
103499.999101
103499.999071
103499.99904
103499.999007
103499.998974
103499.998941
103499.998906
103499.99887
103499.998834
103499.998797
103499.998759
103499.998721
103499.998682
103499.998642
103499.998602
103499.998562
103499.998521
103499.998479
103499.998438
103499.998396
103499.998354
103499.998312
103499.99827
103499.998228
103499.999697
103499.999697
103499.999697
103499.999696
103499.999695
103499.999695
103499.999693
103499.999692
103499.99969
103499.999689
103499.999687
103499.999685
103499.999682
103499.99968
103499.999677
103499.999674
103499.999671
103499.999668
103499.999664
103499.99966
103499.999656
103499.999652
103499.999647
103499.999642
103499.999637
103499.999631
103499.999625
103499.999619
103499.999612
103499.999605
103499.999597
103499.999589
103499.999581
103499.999572
103499.999562
103499.999552
103499.999541
103499.999529
103499.999517
103499.999504
103499.999491
103499.999477
103499.999462
103499.999446
103499.999429
103499.999412
103499.999394
103499.999375
103499.999355
103499.999334
103499.999313
103499.99929
103499.999267
103499.999242
103499.999217
103499.999191
103499.999164
103499.999137
103499.999108
103499.999079
103499.999049
103499.999018
103499.998986
103499.998953
103499.99892
103499.998886
103499.998852
103499.998817
103499.998781
103499.998745
103499.998709
103499.998672
103499.998635
103499.998597
103499.998559
103499.998521
103499.998483
103499.998445
103499.998407
103499.998368
103499.99833
103499.999698
103499.999698
103499.999698
103499.999697
103499.999697
103499.999696
103499.999695
103499.999693
103499.999692
103499.99969
103499.999689
103499.999687
103499.999685
103499.999682
103499.99968
103499.999677
103499.999674
103499.999671
103499.999668
103499.999665
103499.999661
103499.999657
103499.999653
103499.999648
103499.999643
103499.999638
103499.999633
103499.999627
103499.999621
103499.999614
103499.999607
103499.9996
103499.999592
103499.999584
103499.999575
103499.999565
103499.999555
103499.999544
103499.999533
103499.999521
103499.999509
103499.999495
103499.999482
103499.999467
103499.999451
103499.999435
103499.999418
103499.9994
103499.999382
103499.999362
103499.999342
103499.999321
103499.999299
103499.999277
103499.999253
103499.999229
103499.999204
103499.999178
103499.999152
103499.999125
103499.999097
103499.999068
103499.999039
103499.999009
103499.998979
103499.998948
103499.998916
103499.998884
103499.998852
103499.998819
103499.998786
103499.998752
103499.998718
103499.998684
103499.99865
103499.998616
103499.998582
103499.998547
103499.998513
103499.998478
103499.998444
103499.999699
103499.999699
103499.999699
103499.999699
103499.999698
103499.999697
103499.999696
103499.999695
103499.999694
103499.999692
103499.999691
103499.999689
103499.999687
103499.999685
103499.999683
103499.999681
103499.999678
103499.999675
103499.999672
103499.999669
103499.999666
103499.999662
103499.999659
103499.999655
103499.99965
103499.999646
103499.999641
103499.999636
103499.99963
103499.999624
103499.999618
103499.999611
103499.999604
103499.999597
103499.999588
103499.99958
103499.999571
103499.999561
103499.999551
103499.99954
103499.999528
103499.999516
103499.999504
103499.99949
103499.999476
103499.999461
103499.999445
103499.999429
103499.999412
103499.999394
103499.999376
103499.999357
103499.999337
103499.999316
103499.999294
103499.999272
103499.999249
103499.999226
103499.999202
103499.999177
103499.999152
103499.999126
103499.999099
103499.999072
103499.999045
103499.999017
103499.998988
103499.99896
103499.998931
103499.998901
103499.998872
103499.998842
103499.998812
103499.998781
103499.998751
103499.99872
103499.99869
103499.998659
103499.998629
103499.998598
103499.998568
103499.999701
103499.9997
103499.9997
103499.9997
103499.999699
103499.999699
103499.999698
103499.999697
103499.999696
103499.999695
103499.999693
103499.999692
103499.99969
103499.999688
103499.999686
103499.999684
103499.999682
103499.99968
103499.999677
103499.999674
103499.999672
103499.999668
103499.999665
103499.999662
103499.999658
103499.999654
103499.99965
103499.999645
103499.99964
103499.999635
103499.99963
103499.999624
103499.999617
103499.999611
103499.999603
103499.999596
103499.999588
103499.999579
103499.99957
103499.99956
103499.99955
103499.999539
103499.999527
103499.999515
103499.999503
103499.999489
103499.999475
103499.999461
103499.999445
103499.999429
103499.999413
103499.999395
103499.999378
103499.999359
103499.99934
103499.99932
103499.9993
103499.999279
103499.999257
103499.999235
103499.999213
103499.999189
103499.999166
103499.999142
103499.999118
103499.999093
103499.999068
103499.999043
103499.999017
103499.998991
103499.998965
103499.998939
103499.998913
103499.998886
103499.99886
103499.998833
103499.998806
103499.99878
103499.998753
103499.998726
103499.9987
103499.999702
103499.999702
103499.999702
103499.999701
103499.999701
103499.9997
103499.9997
103499.999699
103499.999698
103499.999697
103499.999696
103499.999694
103499.999693
103499.999692
103499.99969
103499.999688
103499.999686
103499.999684
103499.999682
103499.99968
103499.999678
103499.999675
103499.999672
103499.999669
103499.999666
103499.999663
103499.999659
103499.999655
103499.999651
103499.999647
103499.999642
103499.999637
103499.999631
103499.999626
103499.999619
103499.999613
103499.999606
103499.999598
103499.99959
103499.999582
103499.999573
103499.999563
103499.999553
103499.999543
103499.999531
103499.99952
103499.999507
103499.999495
103499.999481
103499.999467
103499.999453
103499.999437
103499.999422
103499.999406
103499.999389
103499.999371
103499.999354
103499.999335
103499.999317
103499.999298
103499.999278
103499.999258
103499.999238
103499.999217
103499.999196
103499.999175
103499.999153
103499.999131
103499.999109
103499.999087
103499.999064