/*--------------------------------*- C++ -*----------------------------------*\
| =========                 |                                                 |
| \\      /  F ield         | OpenFOAM: The Open Source CFD Toolbox           |
|  \\    /   O peration     | Version:  2112                                  |
|   \\  /    A nd           | Website:  www.openfoam.com                      |
|    \\/     M anipulation  |                                                 |
\*---------------------------------------------------------------------------*/
FoamFile
{
    version     2.0;
    format      ascii;
    arch        "LSB;label=32;scalar=64";
    class       surfaceScalarField;
    location    "0.4";
    object      phi;
}
// * * * * * * * * * * * * * * * * * * * * * * * * * * * * * * * * * * * * * //

dimensions      [1 0 -1 0 0 0 0];

oriented        oriented;

internalField   nonuniform List<scalar> 
23692
(
2.32601641724e-06
9.72313615553e-10
2.32331025219e-06
2.70623950094e-09
2.31893177797e-06
4.37858698076e-09
2.31372497142e-06
5.20698546563e-09
2.30859432486e-06
5.13092523969e-09
2.30402370208e-06
4.57098993159e-09
2.30005426644e-06
3.96997325278e-09
2.29649751359e-06
3.55742747367e-09
2.29313534904e-06
3.36299847616e-09
2.28981473873e-06
3.32172488255e-09
2.28645887386e-06
3.35729560603e-09
2.28304365018e-06
3.41701487498e-09
2.27957138931e-06
3.47442030006e-09
2.27605331491e-06
3.52078682489e-09
2.27250093608e-06
3.55574558096e-09
2.26892297413e-06
3.58200415803e-09
2.26532515729e-06
3.60270103545e-09
2.26171078436e-06
3.62023000968e-09
2.25808155321e-06
3.63618926752e-09
2.25443820976e-06
3.6515634053e-09
2.25078106272e-06
3.66678954622e-09
2.24711029293e-06
3.68199571343e-09
2.24342623968e-06
3.69704601882e-09
2.23972954114e-06
3.71166282605e-09
2.23602122813e-06
3.72539027732e-09
2.23230276747e-06
3.73788730513e-09
2.22857608605e-06
3.74864496548e-09
2.22484349017e-06
3.75727432806e-09
2.22110765448e-06
3.76341781115e-09
2.2173715259e-06
3.76682786236e-09
2.21363824017e-06
3.76729672874e-09
2.20991098825e-06
3.76473051142e-09
2.20619291304e-06
3.7591898833e-09
2.20248695904e-06
3.75086016275e-09
2.19879574884e-06
3.7400560132e-09
2.19512147308e-06
3.72723789846e-09
2.19146572729e-06
3.71288342587e-09
2.18782942954e-06
3.69771679101e-09
2.18421274706e-06
3.68256767753e-09
2.18061491483e-06
3.66814573196e-09
2.17703426943e-06
3.65550986923e-09
2.17346807419e-06
3.64560939566e-09
2.16991252674e-06
3.63955275828e-09
2.16636267731e-06
3.63845880687e-09
2.1628123897e-06
3.64346732899e-09
2.15925430756e-06
3.65582353488e-09
2.15567981434e-06
3.67673795263e-09
2.15207901209e-06
3.70751398271e-09
2.14844063121e-06
3.74947647492e-09
2.14475197237e-06
3.80403616291e-09
2.1409987516e-06
3.87281377788e-09
2.13716490702e-06
3.95750021293e-09
2.13323237219e-06
4.06014719744e-09
2.12918068247e-06
4.18313638274e-09
2.12498654077e-06
4.32927389993e-09
2.12062322094e-06
4.50199453655e-09
2.11605978816e-06
4.70547621763e-09
2.11126018166e-06
4.94486969176e-09
2.1061819613e-06
5.22651897e-09
2.10077482126e-06
5.55832536589e-09
2.09497857405e-06
5.95012118789e-09
2.08872069516e-06
6.41429181997e-09
2.0819129735e-06
6.966467665e-09
2.07444723854e-06
7.62664096437e-09
2.06618956948e-06
8.42057079253e-09
2.0569724208e-06
9.38182938434e-09
2.04658392391e-06
1.05548101527e-08
2.03475269654e-06
1.19989659641e-08
2.02112648413e-06
1.37952300503e-08
2.00524103583e-06
1.60555642596e-08
1.98647446986e-06
1.89376134392e-08
1.9639788968e-06
2.26673732883e-08
1.93657654409e-06
2.75747722196e-08
1.90259923286e-06
3.4150190625e-08
1.85963713825e-06
4.31352989153e-08
1.80414265474e-06
5.56678866358e-08
1.73081016005e-06
7.35059884208e-08
1.63158457322e-06
9.93991055089e-08
1.4938055885e-06
1.37952488174e-07
1.29624089967e-06
1.9773825308e-07
3.01465303484e-07
9.9494947821e-07
2.48899155085e-06
1.96427760781e-09
2.4861506189e-06
5.54723342437e-09
2.48152298346e-06
9.00635561561e-09
2.47599631922e-06
1.07338770688e-08
2.47053020874e-06
1.05973210545e-08
2.46564463342e-06
9.45698377755e-09
2.46139104486e-06
8.22403990842e-09
2.4575751978e-06
7.37397646318e-09
2.45396873366e-06
6.97040011131e-09
2.45041022357e-06
6.88141245873e-09
2.44681792915e-06
6.95105488928e-09
2.44316554733e-06
7.07122296763e-09
2.43945476168e-06
7.18762716788e-09
2.43569679387e-06
7.28165781837e-09
2.43190335784e-06
7.35275026445e-09
2.42808336558e-06
7.40634521342e-09
2.42424264905e-06
7.44866044202e-09
2.4203845473e-06
7.48460555193e-09
2.41651075797e-06
7.51745150417e-09
2.41262198987e-06
7.54912615525e-09
2.40871851996e-06
7.58058130321e-09
2.4048005014e-06
7.61203153995e-09
2.40086826646e-06
7.64318055674e-09
2.3969224625e-06
7.67344783294e-09
2.39296418173e-06
7.70198171837e-09
2.38899494814e-06
7.72787645841e-09
2.38501679533e-06
7.75025636877e-09
2.3810321465e-06
7.76831766564e-09
2.37704381455e-06
7.78129742009e-09
2.37305488762e-06
7.78860095769e-09
2.36906865023e-06
7.78988363925e-09
2.36508844871e-06
7.78499024807e-09
2.36111756683e-06
7.77404084781e-09
2.35715907248e-06
7.75737958288e-09
2.35321570069e-06
7.73569324758e-09
2.34928970566e-06
7.7098360002e-09
2.34538274939e-06
7.68098021735e-09
2.34149576606e-06
7.65045963242e-09
2.33762885895e-06
7.61988727909e-09
2.33378122989e-06
7.59100087145e-09
2.32995105963e-06
7.56573982617e-09
2.32613544946e-06
7.54617186241e-09
2.32233035891e-06
7.53450764038e-09
2.31853053557e-06
7.53303842369e-09
2.31472949904e-06
7.54420665727e-09
2.31091945685e-06
7.57041344113e-09
2.30709131445e-06
7.6142654483e-09
2.30323461438e-06
7.67836729087e-09
2.29933746088e-06
7.76543244052e-09
2.29538648552e-06
7.87845546115e-09
2.29136661409e-06
8.020568331e-09
2.28726097495e-06
8.19541645876e-09
2.28305057979e-06
8.40706888427e-09
2.27871394988e-06
8.66036565858e-09
2.27422670002e-06
8.96106651282e-09
2.26956090511e-06
9.31611586837e-09
2.26468433026e-06
9.73399505554e-09
2.25955948956e-06
1.02250968124e-08
2.25414242261e-06
1.08022313885e-08
2.24838118674e-06
1.14812898798e-08
2.24221392038e-06
1.22819996591e-08
2.2355664028e-06
1.32291216686e-08
2.22834888881e-06
1.43538045485e-08
2.22045201724e-06
1.56956541927e-08
2.21174141594e-06
1.73054201645e-08
2.20205053612e-06
1.92488797192e-08
2.19117102709e-06
2.16122307581e-08
2.17883957983e-06
2.45098686763e-08
2.1647199186e-06
2.80957050378e-08
2.14837772807e-06
3.2579733675e-08
2.12924573372e-06
3.82525902276e-08
2.10657489817e-06
4.55220011634e-08
2.07936697936e-06
5.49671337183e-08
2.04628360372e-06
6.74184780046e-08
2.00553163743e-06
8.40725257495e-08
1.95474158331e-06
1.06643397568e-07
1.89091222992e-06
1.37520897321e-07
1.81064434204e-06
1.79852494834e-07
1.71133257225e-06
2.37449670299e-07
1.59617445829e-06
3.13081642325e-07
3.96531148846e-07
1.50129368794e-06
2.66340835369e-06
2.95109643714e-09
2.66049102253e-06
8.46458714004e-09
2.65568938636e-06
1.38081357932e-08
2.64989902737e-06
1.65244436381e-08
2.64411810502e-06
1.63785690145e-08
2.63890567347e-06
1.4669846356e-08
2.63433713766e-06
1.27932054452e-08
2.63022630781e-06
1.14855719565e-08
2.62634315061e-06
1.0854543698e-08
2.62252106692e-06
1.0704757197e-08
2.61867330982e-06
1.08004415475e-08
2.61476996785e-06
1.0976649125e-08
2.61081047711e-06
1.11496074239e-08
2.60680482264e-06
1.12904071505e-08
2.60276402076e-06
1.13973408682e-08
2.59869660269e-06
1.14783571595e-08
2.59460815709e-06
1.15426780234e-08
2.59050184447e-06
1.15975853331e-08
2.58637922015e-06
1.16480125882e-08
2.58224088117e-06
1.16968419829e-08
2.57808701541e-06
1.17454782078e-08
2.57391770832e-06
1.1794155394e-08
2.56973327034e-06
1.18424975054e-08
2.56553433743e-06
1.18894715518e-08
2.56132203372e-06
1.19338202629e-08
2.55709793545e-06
1.19741823871e-08
2.55286414963e-06
1.20092141979e-08
2.54862317269e-06
1.20375274414e-08
2.54437790923e-06
1.20581147416e-08
2.54013154571e-06
1.20701103415e-08
2.53588743561e-06
1.20728792319e-08
2.53164899696e-06
1.20662885148e-08
2.52741956199e-06
1.20505095208e-08
2.52320224289e-06
1.20260911763e-08
2.51899977529e-06
1.1994053207e-08
2.51481441997e-06
1.1955771304e-08
2.51064778839e-06
1.19129611838e-08
2.50650077515e-06
1.18677696371e-08
2.50237338564e-06
1.18225759191e-08
2.49826471499e-06
1.17800978825e-08
2.4941727907e-06
1.1743265076e-08
2.4900945404e-06
1.17152550412e-08
2.48602569829e-06
1.16994362042e-08
2.48196077404e-06
1.16993340536e-08
2.47789296089e-06
1.17185823404e-08
2.47381416206e-06
1.17610304864e-08
2.46971488401e-06
1.1830501188e-08
2.46558424062e-06
1.19310418131e-08
2.46140989659e-06
1.20668635962e-08
2.45717793275e-06
1.22423921019e-08
2.45287276144e-06
1.24625261263e-08
2.44847689411e-06
1.27327152452e-08
2.44397074454e-06
1.305920732e-08
2.43933219009e-06
1.34492764524e-08
2.43453619641e-06
1.39116193236e-08
2.42955420997e-06
1.44567241716e-08
2.42435341155e-06
1.50972812159e-08
2.41889582047e-06
1.58488530036e-08
2.41313717405e-06
1.67305316286e-08
2.40702549352e-06
1.77658963734e-08
2.40049940187e-06
1.89841439806e-08
2.39348586459e-06
2.04215752551e-08
2.3858975384e-06
2.21237393697e-08
2.37762928255e-06
2.41479875817e-08
2.36855382431e-06
2.65672336986e-08
2.35851617753e-06
2.94749382218e-08
2.34732658008e-06
3.2992080235e-08
2.33475149692e-06
3.72768509883e-08
2.3205023075e-06
4.25382421748e-08
2.30422139815e-06
4.90552667155e-08
2.28546583341e-06
5.72038009905e-08
2.26369028163e-06
6.74940735914e-08
2.23823359018e-06
8.06210458528e-08
2.2083209478e-06
9.75288263965e-08
2.17310869456e-06
1.19482860977e-07
2.13182869537e-06
1.48121632781e-07
2.08414241958e-06
1.8540543721e-07
2.03091494879e-06
2.3327815991e-07
1.97591314089e-06
2.92649406854e-07
1.92892935877e-06
3.60262952505e-07
4.2012293275e-07
1.90553448875e-06
2.85007064332e-06
3.90402120828e-09
2.84715465156e-06
1.13806963832e-08
2.84227589894e-06
1.868704315e-08
2.83629889223e-06
2.25017073843e-08
2.83023700901e-06
2.24407596789e-08
2.82469038601e-06
2.02169704174e-08
2.81977475535e-06
1.77094494673e-08
2.81532922736e-06
1.59319214363e-08
2.81113315804e-06
1.50517077144e-08
2.80701923086e-06
1.48200505908e-08
2.80289588531e-06
1.49254482103e-08
2.79872799289e-06
1.5146628368e-08
2.794510856e-06
1.53694382297e-08
2.79025162003e-06
1.55529667521e-08
2.7859595014e-06
1.56935365446e-08
2.78164192836e-06
1.58009122329e-08
2.77730378741e-06
1.58868227783e-08
2.77294778992e-06
1.59607487547e-08
2.76857517764e-06
1.60291391729e-08
2.76418633049e-06
1.60957375926e-08
2.75978127686e-06
1.61623279066e-08
2.75536001769e-06
1.62291903568e-08
2.75092279292e-06
1.62956257312e-08
2.74647022677e-06
1.63602808583e-08
2.74200345815e-06
1.64215172683e-08
2.7375240947e-06
1.64772967107e-08
2.73303426278e-06
1.65258179058e-08
2.72853652981e-06
1.65654167553e-08
2.72403382077e-06
1.6594545738e-08
2.71952933164e-06
1.66121072448e-08
2.71502642896e-06
1.66173616122e-08
2.71052848961e-06
1.66100345349e-08
2.7060387883e-06
1.6590456214e-08
2.70156037947e-06
1.65594005195e-08
2.69709590129e-06
1.65182414385e-08
2.69264750053e-06
1.6468864411e-08
2.68821668115e-06
1.64136321311e-08
2.68380419573e-06
1.63553842145e-08
2.67940992559e-06
1.62973473205e-08
2.67503281414e-06
1.6243195064e-08
2.67067073831e-06
1.61968357314e-08
2.66632046559e-06
1.61626069518e-08
2.66197757085e-06
1.61450147665e-08
2.65763637794e-06
1.61488211516e-08
2.65328992375e-06
1.61789708788e-08
2.64892987927e-06
1.6240560312e-08
2.64454657496e-06
1.63388251791e-08
2.64012890595e-06
1.64791814288e-08
2.63566429279e-06
1.66672827932e-08
2.63113860837e-06
1.6909139521e-08
2.62653603881e-06
1.72113053603e-08
2.62183889906e-06
1.75810468961e-08
2.61702743004e-06
1.80266996874e-08
2.61207943478e-06
1.85579815026e-08
2.606969906e-06
1.91863762618e-08
2.60167046495e-06
1.99257090027e-08
2.59614875635e-06
2.07926688746e-08
2.59036761405e-06
2.18076021305e-08
2.5842841575e-06
2.29953517399e-08
2.57784856264e-06
2.43863647028e-08
2.57100273315e-06
2.60181371418e-08
2.56367863065e-06
2.79369586258e-08
2.55579623976e-06
3.02002542219e-08
2.54726129643e-06
3.28796904451e-08
2.53796255352e-06
3.60651644795e-08
2.52776866272e-06
3.98702203163e-08
2.51652486232e-06
4.44392625832e-08
2.50404963745e-06
4.99572059748e-08
2.49013222951e-06
5.66623540439e-08
2.4745321012e-06
6.48633905658e-08
2.45698353758e-06
7.49615034445e-08
2.43721014822e-06
8.7477534837e-08
2.41495909026e-06
1.03082875635e-07
2.39007171562e-06
1.22627523136e-07
2.3626184006e-06
1.47147805091e-07
2.33313898697e-06
1.77812844398e-07
2.30303406615e-06
2.15722143492e-07
2.2751299277e-06
2.6139384767e-07
2.254315819e-06
3.13674674378e-07
2.24720721891e-06
3.67582096116e-07
4.10903989873e-07
2.256635812e-06
3.04983852242e-06
4.78994758536e-09
3.04701164533e-06
1.42075822407e-08
3.04216916107e-06
2.3529685085e-08
3.03610020753e-06
2.85708421252e-08
3.02980492093e-06
2.87363993138e-08
3.02392450324e-06
2.6097854592e-08
3.01863231689e-06
2.30022699301e-08
3.01381211177e-06
2.07529491302e-08
3.00926567795e-06
1.9599228238e-08
3.00483067458e-06
1.92564878384e-08
3.00041145858e-06
1.93465244562e-08
2.99596614623e-06
1.95942971175e-08
2.99148384913e-06
1.98546145399e-08
2.98696713534e-06
2.00732210982e-08
2.98242214007e-06
2.02428988673e-08
2.97785433657e-06
2.03739858986e-08
2.97326738549e-06
2.04801483947e-08
2.96866321907e-06
2.05725579832e-08
2.96404256161e-06
2.06588817407e-08
2.95940546051e-06
2.0743582906e-08
2.9547517103e-06
2.0828652356e-08
2.95008117695e-06
2.09143699167e-08
2.94539402377e-06
2.0999717712e-08
2.94069085691e-06
2.10829948402e-08
2.93597277272e-06
2.11618847565e-08
2.93124142124e-06
2.12340253558e-08
2.92649892768e-06
2.12970416616e-08
2.92174783554e-06
2.1348728141e-08
2.91699105774e-06
2.13873806363e-08
2.91223171655e-06
2.1411549322e-08
2.90747307316e-06
2.14203804698e-08
2.90271837787e-06
2.14136535708e-08
2.89797072674e-06
2.13917592257e-08
2.89323299405e-06
2.13557967162e-08
2.88850761076e-06
2.13074292058e-08
2.88379651487e-06
2.12490925965e-08
2.87910100384e-06
2.1183756951e-08
2.87442163102e-06
2.11149705516e-08
2.86975812044e-06
2.10468367105e-08
2.8651092314e-06
2.09838854974e-08
2.8604727442e-06
2.09310910254e-08
2.85584529973e-06
2.08937640226e-08
2.85122240577e-06
2.08776205586e-08
2.84659834414e-06
2.08885866818e-08
2.84196613038e-06
2.09329014846e-08
2.83731744873e-06
2.10168711022e-08
2.83264268688e-06
2.11471283296e-08
2.82793081692e-06
2.13304283368e-08
2.82316937742e-06
2.15738007389e-08
2.81834442018e-06
2.18847946419e-08
2.81344036511e-06
2.22715319198e-08
2.8084398807e-06
2.27430408943e-08
2.80332368393e-06
2.33096114143e-08
2.79807022714e-06
2.39831179294e-08
2.79265545543e-06
2.47776805475e-08
2.7870522672e-06
2.57100276042e-08
2.78123013881e-06
2.6800353799e-08
2.77515440251e-06
2.80730851863e-08
2.76878566949e-06
2.9557824109e-08
2.76207898574e-06
3.12905670297e-08
2.75498295772e-06
3.33151956795e-08
2.74743888006e-06
3.56853752143e-08
2.73937972548e-06
3.8466813101e-08
2.73072929156e-06
4.17403403439e-08
2.72140158732e-06
4.56056856186e-08
2.71130066245e-06
5.0186323091e-08
2.70032155961e-06
5.56356836614e-08
2.68835301284e-06
6.21449306346e-08
2.67528354387e-06
6.99526294177e-08
2.66101306189e-06
7.9356118171e-08
2.64547369151e-06
9.07243162663e-08
2.62866560769e-06
1.04510027576e-07
2.61071631549e-06
1.2125733696e-07
2.59197463552e-06
1.4159490798e-07
2.57315233202e-06
1.66196156429e-07
2.55551950115e-06
1.95671829106e-07
2.54113181028e-06
2.30335908984e-07
2.53299015816e-06
2.69761266848e-07
2.53484874263e-06
3.12041331056e-07
2.54990375552e-06
3.52751524188e-07
3.84059478028e-07
2.57697164748e-06
3.26362729455e-06
5.57586040787e-09
3.2609783022e-06
1.68567255784e-08
3.25629110288e-06
2.82170584684e-08
3.25023552404e-06
3.4626721594e-08
3.24376702554e-06
3.52052848016e-08
3.23756459422e-06
3.23008278667e-08
3.2318746986e-06
2.86928687719e-08
3.22664499754e-06
2.59836727019e-08
3.22171365282e-06
2.45317920217e-08
3.21693005471e-06
2.40416483728e-08
3.21219600375e-06
2.40825574514e-08
3.20746177967e-06
2.43309887082e-08
3.20270845947e-06
2.4610991994e-08
3.19793229261e-06
2.48531813769e-08
3.19313501945e-06
2.50447812178e-08
3.18831927955e-06
2.51953716818e-08
3.18348691678e-06
2.53192834807e-08
3.17863872612e-06
2.54289231566e-08
3.17377469948e-06
2.55326123269e-08
3.16889440553e-06
2.56353260836e-08
3.16399735248e-06
2.57391623571e-08
3.15908321271e-06
2.58441352846e-08
3.15415207116e-06
2.59489916803e-08
3.14920445732e-06
2.60514431545e-08
3.144241465e-06
2.61486812166e-08
3.13926471596e-06
2.62378270378e-08
3.13427628648e-06
2.63159989793e-08
3.12927869193e-06
2.63807303214e-08
3.12427470429e-06
2.64298295308e-08
3.11926729954e-06
2.64617159571e-08
3.11425953957e-06
2.64755379235e-08
3.10925441188e-06
2.64710278792e-08
3.10425473591e-06
2.64487400297e-08
3.09926305682e-06
2.64100647788e-08
3.09428152006e-06
2.63570732195e-08
3.08931174735e-06
2.62926519179e-08
3.08435476247e-06
2.62203929364e-08
3.07941088373e-06
2.6144510645e-08
3.07447963749e-06
2.60698939984e-08
3.06955964953e-06
2.60018906931e-08
3.06464860924e-06
2.5946447371e-08
3.05974317643e-06
2.59099116638e-08
3.0548388959e-06
2.58989904117e-08
3.0499302112e-06
2.59208104761e-08
3.04501030717e-06
2.59826737919e-08
3.04007121482e-06
2.60922320538e-08
3.03510366974e-06
2.62572372241e-08
3.03009710201e-06
2.64857483847e-08
3.0250396573e-06
2.67861433362e-08
3.01991805826e-06
2.71672823421e-08
3.0147175775e-06
2.76387607811e-08
3.00942193045e-06
2.82111428959e-08
3.00401309567e-06
2.8896383075e-08
2.99847120672e-06
2.97083304259e-08
2.99277422041e-06
3.06630961133e-08
2.98689772895e-06
3.17798892442e-08
2.98081468217e-06
3.30815492981e-08
2.97449491862e-06
3.45954684278e-08
2.96790500598e-06
3.63546097402e-08
2.96100786253e-06
3.8398593813e-08
2.95376256078e-06
4.07751675228e-08
2.94612426548e-06
4.3541848408e-08
2.93804452798e-06
4.67680259773e-08
2.9294719829e-06
5.05373947215e-08
2.92035388646e-06
5.49510579584e-08
2.91063892193e-06
6.0131048512e-08
2.90028197538e-06
6.62246451842e-08
2.8892519107e-06
7.34090429642e-08
2.87754384793e-06
8.18964696084e-08
2.86519839332e-06
9.19388655002e-08
2.85233043866e-06
1.0383086913e-07
2.83917152313e-06
1.17908524207e-07
2.82613015862e-06
1.34539115214e-07
2.81387230709e-06
1.54093694573e-07
2.80342047795e-06
1.76889273366e-07
2.79625390147e-06
2.03079780412e-07
2.79436150154e-06
2.32469526529e-07
2.80013851241e-06
2.64225106217e-07
2.81592514064e-06
2.96494885456e-07
2.84287421209e-06
3.26041761616e-07
3.48238704764e-07
2.87893308385e-06
3.49241070686e-06
6.23499775191e-09
3.49001749197e-06
1.92499827138e-08
3.48559599979e-06
3.26387326853e-08
3.47965940621e-06
4.05635751783e-08
3.4730874879e-06
4.17776577535e-08
3.46658934477e-06
3.87994904685e-08
3.46049514355e-06
3.47878787787e-08
3.45483273878e-06
3.16469730844e-08
3.44948998649e-06
2.9875826122e-08
3.4443353935e-06
2.91978637587e-08
3.43927077202e-06
2.91492390562e-08
3.43423837111e-06
2.93660000469e-08
3.42920994321e-06
2.96426860492e-08
3.42417400259e-06
2.98931996069e-08
3.41912673739e-06
3.00970165126e-08
3.41406708514e-06
3.02610197923e-08
3.40899454396e-06
3.03991645381e-08
3.4039083691e-06
3.05238122491e-08
3.39880762599e-06
3.06437507733e-08
3.39369126779e-06
3.07639123116e-08
3.38855842442e-06
3.08863382819e-08
3.38340857208e-06
3.10107098786e-08
3.3782416553e-06
3.11352679616e-08
3.37305813113e-06
3.12571720641e-08
3.36785906268e-06
3.1373177934e-08
3.36264599896e-06
3.14797668021e-08
3.35742095063e-06
3.15737113492e-08
3.3521862724e-06
3.16520984258e-08
3.34694455593e-06
3.17125415899e-08
3.34169854287e-06
3.17533975097e-08
3.33645094663e-06
3.17736700193e-08
3.33120439789e-06
3.17732591969e-08
3.32596133804e-06
3.175292825e-08
3.32072387292e-06
3.17142655046e-08
3.31549376077e-06
3.16598025691e-08
3.31027225978e-06
3.15928684048e-08
3.30506005791e-06
3.15175231416e-08
3.29985724252e-06
3.14387014905e-08
3.29466313459e-06
3.13618777678e-08
3.2894763141e-06
3.12932890307e-08
3.28429447237e-06
3.1239584894e-08
3.27911439163e-06
3.12080546102e-08
3.27393188772e-06
3.12064053373e-08
3.26874173486e-06
3.12427000774e-08
3.26353767069e-06
3.13253398448e-08
3.25831231612e-06
3.146294895e-08
3.2530572147e-06
3.1664417137e-08
3.24776273391e-06
3.19389222784e-08
3.24241813456e-06
3.22959771904e-08
3.23701148617e-06
3.27455791858e-08
3.23152961961e-06
3.3298505231e-08
3.22595813073e-06
3.39665834047e-08
3.22028130844e-06
3.4763095491e-08
3.21448198436e-06
3.57032102435e-08
3.20854158728e-06
3.68045824272e-08
3.20243989049e-06
3.8087900014e-08
3.19615516046e-06
3.95776463577e-08
3.18966398478e-06
4.13028235747e-08
3.18294145739e-06
4.32978462574e-08
3.1759614613e-06
4.56036239412e-08
3.16869708131e-06
4.82686084316e-08
3.16112156401e-06
5.13501916292e-08
3.15320968533e-06
5.49161964382e-08
3.14494005993e-06
5.9046570869e-08
3.13629840458e-06
6.38351853501e-08
3.12728278555e-06
6.93918689049e-08
3.1179108197e-06
7.58441903442e-08
3.10823055132e-06
8.33390674887e-08
3.0983353704e-06
9.2043265446e-08
3.08838510458e-06
1.0214238057e-07
3.07863413722e-06
1.13836418466e-07
3.06946821747e-06
1.27330120782e-07
3.06144947934e-06
1.42814340959e-07
3.0553667027e-06
1.604335704e-07
3.05228052607e-06
1.80232838877e-07
3.05354183901e-06
2.02075947941e-07
3.06073986585e-06
2.25528803617e-07
3.07551024547e-06
2.49711569088e-07
3.09911123334e-06
2.73150026886e-07
3.13169802182e-06
2.93710138436e-07
3.08785007632e-07
3.17140562576e-06
3.73722589953e-06
6.75189431502e-09
3.73514385033e-06
2.13321387671e-08
3.73107524689e-06
3.67075273234e-08
3.72535180708e-06
4.62873480963e-08
3.71875077994e-06
4.83790735701e-08
3.71199911949e-06
4.5551836586e-08
3.70551360266e-06
4.12741724626e-08
3.69941293721e-06
3.77487828462e-08
3.69364540035e-06
3.56447269229e-08
3.68810607707e-06
3.47389771957e-08
3.6827004342e-06
3.4557122836e-08
3.67736371657e-06
3.47055279755e-08
3.67205801209e-06
3.49518912466e-08
3.66676327767e-06
3.51922180777e-08
3.66146932896e-06
3.53962030172e-08
3.65617075165e-06
3.5566028581e-08
3.65086415572e-06
3.5713468721e-08
3.64554700243e-06
3.58501868075e-08
3.64021717997e-06
3.59845739057e-08
3.63487293962e-06
3.61211782866e-08
3.62951295035e-06
3.62615474815e-08
3.62413645212e-06
3.64049794172e-08
3.61874322492e-06
3.65490683308e-08
3.613333655e-06
3.6690425245e-08
3.60790869402e-06
3.68251797249e-08
3.60246981837e-06
3.69494253942e-08
3.59701886807e-06
3.70594343558e-08
3.59155798573e-06
3.71520386333e-08
3.58608949777e-06
3.72247352008e-08
3.58061576542e-06
3.72757542673e-08
3.57513910123e-06
3.73041825051e-08
3.56966167413e-06
3.73100326209e-08
3.56418541846e-06
3.72942806244e-08
3.55871198585e-06
3.72588428879e-08
3.55324267106e-06
3.72065157583e-08
3.54777831204e-06
3.71410613402e-08
3.54231932911e-06
3.70670398439e-08
3.53686553547e-06
3.69898301602e-08
3.53141620498e-06
3.69155542859e-08
3.52596987203e-06
3.68509772567e-08
3.52052445365e-06
3.68035822494e-08
3.51507702582e-06
3.67813294187e-08
3.50962387716e-06
3.67926720789e-08
3.50416044099e-06
3.68465317172e-08
3.49868128247e-06
3.69521504669e-08
3.49318007463e-06
3.71190362271e-08
3.48764961667e-06
3.73569716717e-08
3.48208175979e-06
3.76759361244e-08
3.47646750247e-06
3.8086327636e-08
3.47079698178e-06
3.85990226664e-08
3.46505943646e-06
3.92256223116e-08
3.45924329551e-06
3.99787877712e-08
3.45333620266e-06
4.08725538266e-08
3.44732502413e-06
4.19228263652e-08
3.44119601794e-06
4.3147924973e-08
3.4349348631e-06
4.45690046676e-08
3.42852701755e-06
4.62108436215e-08
3.42195793122e-06
4.81023499549e-08
3.41521374431e-06
5.0277355834e-08
3.40828192487e-06
5.27753285104e-08
3.40115256139e-06
5.56421514745e-08
3.39382000739e-06
5.89309701917e-08
3.38628524538e-06
6.27029333403e-08
3.3785592107e-06
6.70280047299e-08
3.37066741185e-06
7.19855458292e-08
3.36265616423e-06
7.76645369125e-08
3.35460097095e-06
8.41634180829e-08
3.34661752893e-06
9.15887902313e-08
3.33887616437e-06
1.0005294667e-07
3.33161959659e-06
1.09668961925e-07
3.32518467248e-06
1.20542799931e-07
3.32002673302e-06
1.32760699942e-07
3.31674426536e-06
1.46370290902e-07
3.31609855666e-06
1.61353397626e-07
3.31901750202e-06
1.77588350086e-07
3.32656683818e-06
1.94801131347e-07
3.33986253457e-06
2.12507400996e-07
3.35989283914e-06
2.29955079924e-07
3.38722506435e-06
2.46090897792e-07
3.42161336841e-06
2.59593895032e-07
2.69036317605e-07
3.46163282369e-06
3.99918051104e-06
7.12505295141e-09
3.99743463379e-06
2.30781315119e-08
3.99377191993e-06
4.03704204938e-08
3.9883339007e-06
5.17256621753e-08
3.98177619276e-06
5.49372674499e-08
3.97482743793e-06
5.25011592341e-08
3.96798524483e-06
4.81172480935e-08
3.96146192058e-06
4.42731806524e-08
3.95527300636e-06
4.18351619619e-08
3.94934667841e-06
4.06671696335e-08
3.94359660983e-06
4.03095230593e-08
3.93795340739e-06
4.03517554221e-08
3.93237032577e-06
4.05386557386e-08
3.92681878905e-06
4.07483261926e-08
3.92128192264e-06
4.09387228657e-08
3.91574954098e-06
4.11052745179e-08
3.91021508201e-06
4.12561799547e-08
3.90467396184e-06
4.1401261884e-08
3.89912272377e-06
4.15475646055e-08
3.89355882189e-06
4.16989566323e-08
3.88798043951e-06
4.18561871948e-08
3.88238651291e-06
4.20178537652e-08
3.87677664987e-06
4.21808525191e-08
3.87115110837e-06
4.23411607701e-08
3.86551071933e-06
4.2494371459e-08
3.85985677933e-06
4.26361035627e-08
3.85419091393e-06
4.27623005136e-08
3.84851496742e-06
4.28696077989e-08
3.84283088826e-06
4.29553553886e-08
3.83714058222e-06
4.30178146959e-08
3.83144587694e-06
4.30562098671e-08
3.82574840913e-06
4.30706874026e-08
3.82004959036e-06
4.30624089112e-08
3.81435054412e-06
4.30335780005e-08
3.8086521482e-06
4.29872898371e-08
3.80295485828e-06
4.29275750356e-08
3.7972588487e-06
4.28594048403e-08
3.79156380538e-06
4.27884822621e-08
3.78586900463e-06
4.2721379582e-08
3.78017321281e-06
4.26653637611e-08
3.77447466168e-06
4.26283759071e-08
3.76877097457e-06
4.26189229259e-08
3.76305922174e-06
4.26461093114e-08
3.75733580997e-06
4.27194090314e-08
3.75159651989e-06
4.28486445644e-08
3.74583652466e-06
4.30439587854e-08
3.74005035133e-06
4.33156614221e-08
3.73423196923e-06
4.36743779657e-08
3.72837480281e-06
4.41309588304e-08
3.72247181508e-06
4.46967754251e-08
3.71651555622e-06
4.53837656341e-08
3.71049826585e-06
4.62048450493e-08
3.70441208562e-06
4.71741955075e-08
3.69824922055e-06
4.83076893299e-08
3.69200211319e-06
4.96232278449e-08
3.68566398113e-06
5.11413705052e-08
3.67922915564e-06
5.28856265629e-08
3.67269384361e-06
5.48830703242e-08
3.66605709241e-06
5.71647282654e-08
3.65932191678e-06
5.97659878638e-08
3.6524971424e-06
6.27270284164e-08
3.64559948906e-06
6.60929868879e-08
3.63865664799e-06
6.99141431985e-08
3.63171101522e-06
7.42457052879e-08
3.62482457724e-06
7.91473787961e-08
3.61808530289e-06
8.4682326939e-08
3.61161457273e-06
9.0915366443e-08
3.60557680284e-06
9.79102604946e-08
3.60019014632e-06
1.05725423517e-07
3.59573882694e-06
1.14407955455e-07
3.59258562611e-06
1.23985210631e-07
3.59118318577e-06
1.34453584921e-07
3.59208093784e-06
1.4576394493e-07
3.59592278833e-06
1.57803595969e-07
3.60342851411e-06
1.70375028875e-07
3.6153490089e-06
1.83173159876e-07
3.63238405479e-06
1.95764643055e-07
3.6550543963e-06
2.07576557016e-07
3.68352985608e-06
2.17906489996e-07
3.71744342348e-06
2.25970350426e-07
2.31003190095e-07
3.75576527404e-06
4.2794612638e-06
7.36697508174e-09
4.27804480534e-06
2.44946910566e-08
4.27480278294e-06
4.36127084167e-08
4.26969422051e-06
5.68345727322e-08
4.26324369849e-06
6.13882545556e-08
4.2561637682e-06
5.95818447151e-08
4.24901878966e-06
5.52631525371e-08
4.24210945192e-06
5.11837707161e-08
4.23552023034e-06
4.84258923932e-08
4.22921735081e-06
4.69720345663e-08
4.22312755866e-06
4.64018516147e-08
4.21718029494e-06
4.63021535611e-08
4.21132205599e-06
4.64008646447e-08
4.20551661695e-06
4.65586616708e-08
4.19974068653e-06
4.67206459189e-08
4.1939793049e-06
4.68738648114e-08
4.18822264295e-06
4.70215896824e-08
4.18246389738e-06
4.71704616801e-08
4.17669825133e-06
4.7325694704e-08
4.17092225139e-06
4.74896804055e-08
4.16513358028e-06
4.76621745181e-08
4.15933082292e-06
4.78407482909e-08
4.15351338401e-06
4.80215770917e-08
4.14768135616e-06
4.81999865431e-08
4.14183537499e-06
4.83709811251e-08
4.1359764866e-06
4.85297841412e-08
4.13010602589e-06
4.86721163887e-08
4.12422542504e-06
4.87943964103e-08
4.11833620216e-06
4.88940277646e-08
4.11243975289e-06
4.89692596092e-08
4.10653734909e-06
4.90195025251e-08
4.10063009244e-06
4.9045042855e-08
4.09471889541e-06
4.90472730487e-08
4.08880440658e-06
4.90285274554e-08
4.08288713651e-06
4.89921246594e-08
4.07696730037e-06
4.89422884448e-08
4.07104491743e-06
4.88841829046e-08
4.06511973981e-06
4.88237756314e-08
4.05919124067e-06
4.87678985926e-08
4.05325859228e-06
4.87240671442e-08
4.04732060225e-06
4.87005257201e-08
4.0413757665e-06
4.87061442871e-08
4.03542219496e-06
4.87503153656e-08
4.02945763507e-06
4.88428381509e-08
4.02347953913e-06
4.89938754255e-08
4.01748499002e-06
4.92138088289e-08
4.01147087541e-06
4.95132352036e-08
4.00543380911e-06
4.99028795105e-08
3.99937040783e-06
5.03937439164e-08
3.9932771726e-06
5.09970775232e-08
3.98715087321e-06
5.1724702397e-08
3.98098854768e-06
5.25891612981e-08
3.97478792886e-06
5.36039910874e-08
3.96854760054e-06
5.47840748889e-08
3.96226759274e-06
5.61459801695e-08
3.9559497908e-06
5.77082741974e-08
3.9495987963e-06
5.94918513051e-08
3.94322276304e-06
6.15201435606e-08
3.93683467544e-06
6.38193751735e-08
3.93045386341e-06
6.6418601683e-08
3.92410791708e-06
6.9349657501e-08
3.91783520563e-06
7.26469771197e-08
3.91168778636e-06
7.63470756349e-08
3.90573522047e-06
8.048773953e-08
3.90006881438e-06
8.51068355407e-08
3.89480692089e-06
9.02405493185e-08
3.89010068382e-06
9.59208851758e-08
3.88614045245e-06
1.0217239674e-07
3.88316221524e-06
1.09007869488e-07
3.88145353981e-06
1.16422804369e-07
3.88135781964e-06
1.24388753305e-07
3.88327519469e-06
1.32845345077e-07
3.88765795949e-06
1.41691400213e-07
3.89499694533e-06
1.50775512618e-07
3.90579596899e-06
1.59887311948e-07
3.92052978768e-06
1.68750791746e-07
3.93958308375e-06
1.7702257049e-07
3.96317189928e-06
1.84298562097e-07
3.99125487371e-06
1.90133562711e-07
4.02345620344e-06
1.94078058982e-07
1.95733159786e-07
4.05903398907e-06
4.5793426636e-06
7.49991730686e-09
4.57822250988e-06
2.56149664827e-08
4.57538152759e-06