/*--------------------------------*- C++ -*----------------------------------*\
| =========                 |                                                 |
| \\      /  F ield         | OpenFOAM: The Open Source CFD Toolbox           |
|  \\    /   O peration     | Version:  2112                                  |
|   \\  /    A nd           | Website:  www.openfoam.com                      |
|    \\/     M anipulation  |                                                 |
\*---------------------------------------------------------------------------*/
FoamFile
{
    version     2.0;
    format      ascii;
    arch        "LSB;label=32;scalar=64";
    class       volScalarField;
    location    "0.4";
    object      T;
}
// * * * * * * * * * * * * * * * * * * * * * * * * * * * * * * * * * * * * * //

dimensions      [0 0 0 1 0 0 0];

internalField   nonuniform List<scalar> 
12013
(
299.999996184
299.999988657
299.999981644
299.999975748
299.999971658
299.99997016
299.999972191
299.999978861
299.999991507
300.00001173
300.000041451
300.000082958
300.00013897
300.000212685
300.000307845
300.000428793
300.000580528
300.000768761
300.000999964
300.00128142
300.00162126
300.002028497
300.002513052
300.003085775
300.003758449
300.004543793
300.005455456
300.006507994
300.007716847
300.009098306
300.010669471
300.012448205
300.014453079
300.016703316
300.019218736
300.022019688
300.025126991
300.028561876
300.032345925
300.036501014
300.041049266
300.046013006
300.05141472
300.057277032
300.063622678
300.070474501
300.077855453
300.085788609
300.094297197
300.103404644
300.113134642
300.123511229
300.134558893
300.146302708
300.15876849
300.171982995
300.185974151
300.200771338
300.216405728
300.232910692
300.250322284
300.268679842
300.288026718
300.308411174
300.329887517
300.352517527
300.376372297
300.40153464
300.428102283
300.456192213
300.485946694
300.517541845
300.551200211
300.587209866
300.625954707
300.66796504
300.714007623
300.765258951
300.823672474
300.892849004
300.980358454
299.999996182
299.999988649
299.999981631
299.999975729
299.999971633
299.999970127
299.99997215
299.99997881
299.999991444
300.000011653
300.000041356
300.000082841
300.000138825
300.000212506
300.000307623
300.000428518
300.000580187
300.000768338
300.000999441
300.001280774
300.001620464
300.00202752
300.002511859
300.003084322
300.003756686
300.004541665
300.005452896
300.006504928
300.00771319
300.009093963
300.010664334
300.012442151
300.014445971
300.016695002
300.019209044
300.022008429
300.025113953
300.028546826
300.032328601
300.036481128
300.041026498
300.045987003
300.05138509
300.057243341
300.063584446
300.070431194
300.077806478
300.085733304
300.094234826
300.103334385
300.113055571
300.123422308
300.134458952
300.146190422
300.158642355
300.171841293
300.185814912
300.200592292
300.216204247
300.232683707
300.250066198
300.2683904
300.287698847
300.308038775
300.32946318
300.352032151
300.375814561
300.400890261
300.427352949
300.455314006
300.484907699
300.516298385
300.549690701
300.585344257
300.623595276
300.664888923
300.709827393
300.759236618
300.814232009
300.876145852
300.945636826
299.999996176
299.999988633
299.999981602
299.999975687
299.999971576
299.999970054
299.999972059
299.999978697
299.999991305
300.000011482
300.000041145
300.000082582
300.000138505
300.000212109
300.000307132
300.000427909
300.000579431
300.0007674
300.000998281
300.001279342
300.001618702
300.002025358
300.002509215
300.003081103
300.003752784
300.004536952
300.00544723
300.006498143
300.0077051
300.009084357
300.010652973
300.012428769
300.014430267
300.016676642
300.019187655
300.021983594
300.025085212
300.028513667
300.032290458
300.036437373
300.040976439
300.045929871
300.051320037
300.057169425
300.063500625
300.070336312
300.07769925
300.085612301
300.094098452
300.103180855
300.112882886
300.123228219
300.134240921
300.145945576
300.158367426
300.17153255
300.185468077
300.200202431
300.215765637
300.232189677
300.249508912
300.267760593
300.286985477
300.307228567
300.328540025
300.35097629
300.374601475
300.399489121
300.425724406
300.453406979
300.482654569
300.513607608
300.546435066
300.58134155
300.618575093
300.658433206
300.701259581
300.74740956
300.797124826
300.85016818
300.904906372
299.999996167
299.999988605
299.999981554
299.999975618
299.999971483
299.999969934
299.999971907
299.99997851
299.999991074
300.000011198
300.000040795
300.000082151
300.000137973
300.000211451
300.000306317
300.000426897
300.000578176
300.000765845
300.000996356
300.001276965
300.001615776
300.002021769
300.002504828
300.003075761
300.003746306
300.004529131
300.005437826
300.006486885
300.007691678
300.00906842
300.010634128
300.012406571
300.014404221
300.016646193
300.019152185
300.021942415
300.025037561
300.028458697
300.032227231
300.036364854
300.040893478
300.045835198
300.051212248
300.057046965
300.063361771
300.070179153
300.077521662
300.085411921
300.093872646
300.102926679
300.112597039
300.122906993
300.133880134
300.145540496
300.15791268
300.171022007
300.184894713
300.199558158
300.215041093
300.231373959
300.248589247
300.266721913
300.285809874
300.305894585
300.32702173
300.349242028
300.372612195
300.397196067
300.423065903
300.450303849
300.479003487
300.509271256
300.541227248
300.575004277
300.610742806
300.648576643
300.688599128
300.730790497
300.774873895
300.820058245
300.864665926
299.999996154
299.999988563
299.999981483
299.999975515
299.999971345
299.999969757
299.999971684
299.999978233
299.999990733
300.000010778
300.00004028
300.000081516
300.000137188
300.00021048
300.000305113
300.000425404
300.000576324
300.00076355
300.000993516
300.00127346
300.001611461
300.002016475
300.002498358
300.003067885
300.003736756
300.0045176
300.005423963
300.006470287
300.007671891
300.009044928
300.01060635
300.012373853
300.014365833
300.016601317
300.01909991
300.021881729
300.02496734
300.028377694
300.032134066
300.036257998
300.040771243
300.045695716
300.05105345
300.056866565
300.063157235
300.069947672
300.077260117
300.085116845
300.093540173
300.102552492
300.112176308
300.122434291
300.133349353
300.144944732
300.157244103
300.170271705
300.184052489
300.198612302
300.213978081
300.230178092
300.24724219
300.265202122
300.284091858
300.303947966
300.324810012
300.346720995
300.369727773
300.393881465
300.419237722
300.445856747
300.473802768
300.503142502
300.533941745
300.566258643
300.600131158
300.635554708
300.672443757
300.71056972
300.74947058
300.788343941
300.82597832
299.999996135
299.999988506
299.999981385
299.999975373
299.999971154
299.999969511
299.999971375
299.99997785
299.999990261
300.000010198
300.000039566
300.000080637
300.000136103
300.000209138
300.00030345
300.000423341
300.000573765
300.000760378
300.000989592
300.001268616
300.001605499
300.002009162
300.002489419
300.003057003
300.003723563
300.004501672
300.005404813
300.006447363
300.007644563
300.009012484
300.010567987
300.012328672
300.014312823
300.01653935
300.019027731
300.02179794
300.024870391
300.028265865
300.032005454
300.036110496
300.040602523
300.045503202
300.050834296
300.056617622
300.062875017
300.069628317
300.076899341
300.084709886
300.093081732
300.102036659
300.111596473
300.121783046
300.132618368
300.144124614
300.156324222
300.169239987
300.182895166
300.197313605
300.212519868
300.228539384
300.245398605
300.263125159
300.281748008
300.301297576
300.321805851
300.343306404
300.365834283
300.389425699
300.414117351
300.439945208
300.466942377
300.495135573
300.524539377
300.555147162
300.586917198
300.619752247
300.653471255
300.687773513
300.722200969
300.756116096
300.788728583
299.99999611
299.999988431
299.999981255
299.999975184
299.9999709
299.999969185
299.999970965
299.999977341
299.999989634
300.000009427
300.000038619
300.00007947
300.000134664
300.000207357
300.000301243
300.000420604
300.00057037
300.000756172
300.000984389
300.001262194
300.001597595
300.001999467
300.002477572
300.003042581
300.003706079
300.004480565
300.00537944
300.00641699
300.007608357
300.008969504
300.010517171
300.012268827
300.014242613
300.016457284
300.018932147
300.02168699
300.024742022
300.028117806
300.031835188
300.035915241
300.040379203
300.045248419
300.050544294
300.056288249
300.062501683
300.069205938
300.076422286
300.084171903
300.092475874
300.101355187
300.11083075
300.12092341
300.131653982
300.143043287
300.155112197
300.167881689
300.1813729
300.195607186
300.210606181
300.226391846
300.242986504
300.260412846
300.278693902
300.297852932
300.317913229
300.338897769
300.360828637
300.383726138
300.407607439
300.43248454
300.458361298
300.485229144
300.513061005
300.541802926
300.57136294
300.601597214
300.632294592
300.663162492
300.693819806
300.723806125
300.752619257
299.999996078
299.999988333
299.999981087
299.999974941
299.999970573
299.999968763
299.999970435
299.999976684
299.999988825
300.000008433
300.000037397
300.000077966
300.000132807
300.000205061
300.000298398
300.000417077
300.000565997
300.000750753
300.000977686
300.001253922
300.001587417
300.001986983
300.002462318
300.003024014
300.003683573
300.004453398
300.005346786
300.006377906
300.007561772
300.008914207
300.010451799
300.012191846
300.014152309
300.016351741
300.018809229
300.021544327
300.024576982
300.027927472
300.031616335
300.035664303
300.04009224
300.044921082
300.05017178
300.055865255
300.062022347
300.068663784
300.075810142
300.083481826
300.091699049
300.100481817
300.109849926
300.119822959
300.130420288
300.141661083
300.15356432
300.166148786
300.179433082
300.193435619
300.208174589
300.223667926
300.239933218
300.256987575
300.274847423
300.293528198
300.313043898
300.333406454
300.354624838
300.376703825
300.399642305
300.423430984
300.448049337
300.473461639
300.499611957
300.526418092
300.553764671
300.58149609
300.609410763
300.637259228
300.664749273
300.691561091
300.71737467
299.999996038
299.999988209
299.999980875
299.999974632
299.999970159
299.99996823
299.999969765
299.999975854
299.999987803
300.000007177
300.000035854
300.000076066
300.000130463
300.000202163
300.000294809
300.000412627
300.000560481
300.00074392
300.000969236
300.001243496
300.001574589
300.001971254
300.0024431
300.003000627
300.003655228
300.004419187
300.005305669
300.006328698
300.007503129
300.008844607
300.010369526
300.012094977
300.014038689
300.016218964
300.018654618
300.021364904
300.024369447
300.027688172
300.031341228
300.035348926
300.039731665
300.044509874
300.049703945
300.055334178
300.061420734
300.06798358
300.075042451
300.082616809
300.090725813
300.099388288
300.108622696
300.118447113
300.128879205
300.139936202
300.151634864
300.163991446
300.177021645
300.190740528
300.205162436
300.220300848
300.2361682
300.252775627
300.270132634
300.288246632
300.307122347
300.326761024
300.3471594
300.368308389
300.390191401
300.412782254
300.436042631
300.459919084
300.48433968
300.509210541
300.534412678
300.559799824
300.585198223
300.610409706
300.635219312
300.659407816
300.68276851
299.999995987
299.999988056
299.999980611
299.999974249
299.999969644
299.999967568
299.999968933
299.999974822
299.999986532
300.000005617
300.000033936
300.000073707
300.000127553
300.000198566
300.000290355
300.000407108
300.00055364
300.000735449
300.000958762
300.001230575
300.001558696
300.001951769
300.002419299
300.002971667
300.003620134
300.004376838
300.005254781
300.006267806
300.007430571
300.008758506
300.010267766
300.011975184
300.013898204
300.016054823
300.01846352
300.021143184
300.024113043
300.027392587
300.031001498
300.034959568
300.039286638
300.044002516
300.049126921
300.05467941
300.060679323
300.067145722
300.074097339
300.081552524
300.089529194
300.09804479
300.107116223
300.116759833
300.126991327
300.137825732
300.149277315
300.161359513
300.174084822
300.187464681
300.201509304
300.216227481
300.231626319
300.247710912
300.264483924
300.281945066
300.30009044
300.318911732
300.338395226
300.358520616
300.379259619
300.400574376
300.422415703
300.44472126
300.467413815
300.490399863
300.513568965
300.536794258
300.55993458
300.582838646
300.605351539
300.627323179
300.648617869
299.999995926
299.999987867
299.999980286
299.999973778
299.999969011
299.999966754
299.99996791
299.999973555
299.999984972
300.000003702
300.000031586
300.000070815
300.000123988
300.000194161
300.000284903
300.000400354
300.000545272
300.00072509
300.000945957
300.001214784
300.001539277
300.001927967
300.002390231
300.002936306
300.003577293
300.004325151
300.005192684
300.006193518
300.00734207
300.008653507
300.010143698
300.01182916
300.013726996
300.015854832
300.018230741
300.020873174
300.02380088
300.027032831
300.030588143
300.034485996
300.038745557
300.043385906
300.048425961
300.053884404
300.059779614
300.066129596
300.072951918
300.080263644
300.088081271
300.096420661
300.105296978
300.114724609
300.124717096
300.135287041
300.146446009
300.158204411
300.170571365
300.183554532
300.197159909
300.211391589
300.226251459
300.241738846
300.257850076
300.274577966
300.291911206
300.309833651
300.328323511
300.347352443
300.366884579
300.386875527
300.407271416
300.428008089
300.44901059
300.470193127
300.491459726
300.512705791
300.533820706
300.554691499
300.575207468
300.595265396
300.614774768
299.99999585
299.999987637
299.999979892
299.999973206
299.999968242
299.999965765
299.999966668
299.999972017
299.99998308
300.00000138
300.000028736
300.000067311
300.00011967
300.000188828
300.000278306
300.000392184
300.000535154
300.000712569
300.000930486
300.001195711
300.001515829
300.001899235
300.002355152
300.002893646
300.003525622
300.004262826
300.005117826
300.006103987
300.007235436
300.008527028
300.009994288
300.011653357
300.013520933
300.015614197
300.017950742
300.020548498
300.02342565
300.026600555
300.030091665
300.033917439
300.038096261
300.04264636
300.047585724
300.052932027
300.058702544
300.064914075
300.071582868
300.078724539
300.086353997
300.094485358
300.103131864
300.112305788
300.122018341
300.132279554
300.143098164
300.154481466
300.166435155
300.178963136
300.192067303
300.205747287
300.220000154
300.234820066
300.250197883
300.266120724
300.282571468
300.299528221
300.316963749
300.334844905
300.353132091
300.371778793
300.390731271
300.40992847
300.429302255
300.448778053
300.468276002
300.487712644
300.507003193
300.526064243
300.544816785
300.563189256
300.581120308
299.99999576
299.99998736
299.999979417
299.999972516
299.999967317
299.999964574
299.999965174
299.999970166
299.999980805
299.99999859
300.000025313
300.000063106
300.000114491
300.000182435
300.000270401
300.000382401
300.000523044
300.000697589
300.000911985
300.001172911
300.00148781
300.001864915
300.002313265
300.002842721
300.003463961
300.004188476
300.005028553
300.005997247
300.007108347
300.008376336
300.009816333
300.011444039
300.013275672
300.015327894
300.017617735
300.020162515
300.022979761
300.02608712
300.029502272
300.033242844
300.037326322
300.041769959
300.046590692
300.05180505
300.057429069
300.063478205
300.069967242
300.07691021
300.084320288
300.092209712
300.100589678
300.109470234
300.118860168
300.128766886
300.139196276
300.150152556
300.161638105
300.173653275
300.18619618
300.199262454
300.212844996
300.226933673
300.241515017
300.256571889
300.272083145
300.288023296
300.304362206
300.321064822
300.338090998
300.35539544
300.372927812
300.390633061
300.408451998
300.426322162
300.444178986
300.461957252
300.479592777
300.497024247
300.514195067
300.531055081
300.547562001
299.999995652
299.999987029
299.999978849
299.999971692
299.999966211
299.999963152
299.99996339
299.999967959
299.999978093
299.999995266
300.000021238
300.000058102
300.000108333
300.00017484
300.000261016
300.000370792
300.000508682
300.000679834
300.000890067
300.001145913
300.001454647
300.00182431
300.002263728
300.00278252
300.003391096
300.004100649
300.004923138
300.005871255
300.006958393
300.008198602
300.009606528
300.011197361
300.012986761
300.014990789
300.017225826
300.019708491
300.022455553
300.025483847
300.028810175
300.032451223
300.036423459
300.040743047
300.045425747
300.050486821
300.055940946
300.061802108
300.068083515
300.074797495
300.0819554
300.089567498
300.097642873
300.106189309
300.11521317
300.124719278
300.134710773
300.145188968
300.156153191
300.167600614
300.179526071
300.191921863
300.204777557
300.218079775
300.231811989
300.245954318
300.260483354
300.275372013
300.290589442
300.306101003
300.32186834
300.337849579
300.353999657
300.370270814
300.386613259
300.402975995
300.419307801
300.435558324
300.451679245
300.467625436
300.483356049
300.498835443
300.514033901
299.999995523
299.999986636
299.999978174
299.999970714
299.999964899
299.999961467
299.999961276
299.999965345
299.999974883
299.999991335
300.000016424
300.000052195
300.00010107
300.000165888
300.000249964
300.000357131
300.000491794
300.000658969
300.000864325
300.001114224
300.001415742
300.0017767
300.002205673
300.002712001
300.003305782
300.003997864
300.004799825
300.005723938
300.006783141
300.007990981
300.009361563
300.010909488
300.01264978
300.014597812
300.016769226
300.019179844
300.021845583
300.024782359
300.028005997
300.031532127
300.035376098
300.039552868
300.044076913
300.048962128
300.054221721
300.05986812
300.065912869
300.072366528
300.079238567
300.086537264
300.094269592
300.102441113
300.111055861
300.120116219
300.129622799
300.139574311
300.149967431
300.160796663
300.172054203
300.183729804
300.195810642
300.208281199
300.22112316
300.234315332
300.247833608
300.261650969
300.275737547
300.290060766
300.304585555
300.31927466
300.334089057
300.348988455
300.363931904
300.378878471
300.39378798
300.408621776
300.423343478
300.43791968
300.452320556
300.466520353
300.480497711
299.999995371
299.999986173
299.999977379
299.999969561
299.999963353
299.999959481
299.999958788
299.999962271
299.999971111
299.99998672
300.000010777
300.000045275
300.000092568
300.00015542
300.000237051
300.000341186
300.000472098
300.000634653
300.000834348
300.001077345
300.001370494
300.001721361
300.002138233
300.002630128
300.003206786
300.00387866
300.004656891
300.005553275
300.006580226
300.007750725
300.009078258
300.01057676
300.012260535
300.014144184
300.016242517
300.018570469
300.021143007
300.023975031
300.027081287
300.030476256
300.034174063
300.038188373
300.042532289
300.047218249
300.052257928
300.057662136
300.06344071
300.069602423
300.076154871
300.083104379
300.090455892
300.098212878
300.106377219
300.114949111
300.123926958
300.133307277
300.143084592
300.153251347
300.163797819
300.174712046
300.185979763
300.197584372
300.209506923
300.22172614
300.234218475
300.246958222
300.259917668
300.27306731
300.286376132
300.299811942
300.313341762
300.326932278
300.340550322
300.354163384
300.367740131
300.381250904
300.394668187
300.407967007
300.42112526
300.434123946
300.446947301
299.999995194
299.999985629
299.999976447
299.99996821
299.999961542
299.999957157
299.999955878
299.999958678
299.999966708
299.999981339
300.0000042
300.000037224
300.00008269
300.000143272
300.000222082
300.00032272
300.000449309
300.000606545
300.000799726
300.001034786
300.001318318
300.001657594
300.002060575
300.002535912
300.00309294
300.003741662
300.004492726
300.00535739
300.006347476
300.007475326
300.008753736
300.010195895
300.011815307
300.013625714
300.015641008
300.017875147
300.020342057
300.023055538
300.026029165
300.029276188
300.03280943
300.036641187
300.040783127
300.045246185
300.050040464
300.05517514
300.060658354
300.066497124
300.072697245
300.079263195
300.086198046
300.093503374
300.101179178
300.109223793
300.117633821
300.12640406
300.135527449
300.144995016
300.154795848
300.164917072
300.175343861
300.186059461
300.197045247
300.20828081
300.21974408
300.231411482
300.243258138
300.255258105
300.267384642
300.279610525
300.291908377
300.304251025
300.316611858
300.328965191
300.341286604
300.353553261
300.365744179
300.377840453
300.389825416
300.401684743
300.413406478
299.999994986
299.999984996
299.99997536
299.999966635
299.999959434
299.999954452
299.999952495
299.999954506
299.999961601
299.999975106
299.999996593
300.000027924
300.000071296
300.000129278
300.000204862
300.000301502
300.000423156
300.000574323
300.000760076
300.000986091
300.001258671
300.001584759
300.001971945
300.002428469
300.002963211
300.00358567
300.004305943
300.005134683
300.006083059
300.007162704
300.008385649
300.009764261
300.011311164
300.013039163
300.014961154
300.017090035
300.019438616
300.022019517
300.024845075
300.027927244
300.031277489
300.034906696
300.038825065
300.043042014
300.047566085
300.052404846
300.057564806
300.063051319
300.068868507
300.075019175
300.08150474
300.088325159
300.09547887
300.102962736
300.110772002
300.118900262
300.127339436
300.136079768
300.145109832
300.154416566
300.163985317
300.173799922
300.183842799
300.194095073
300.204536728
300.215146778
300.225903475
300.236784521
300.24776732
300.258829222
300.269947792
300.28110107
300.292267823
300.303427788
300.314561886
300.325652414
300.336683192
300.347639684
300.358509064
300.369280246
300.379943882
299.999994746
299.99998426
299.9999741
299.999964811
299.999956993
299.999951324
299.999948586
299.999949692
299.999955717
299.999967934
299.999987854
300.00001726
300.00005825
300.000113281
300.000185207
300.000277321
300.00039339
300.000537695
300.000715058
300.000930866
300.001191097
300.001502325
300.00187173
300.002307095
300.002816792
300.003409764
300.004095499
300.004883987
300.005785678
300.006811428
300.007972435
300.009280175
300.010746322
300.012382671
300.014201051
300.016213239
300.018430861
300.020865307
300.023527624
300.02642843
300.029577811
300.032985226
300.036659416
300.040608309
300.044838937
300.049357343
300.054168507
300.05927627
300.06468326
300.070390835
300.076399024
300.082706481
300.089310444
300.096206717
300.103389642
300.110852109
300.118585558
300.12658001
300.134824113
300.143305198
300.152009362
300.160921564
300.170025745
300.179304959
300.188741528
300.19831721
300.208013374
300.217811199
300.227691858
300.237636727
300.247627567
300.257646719
300.26767727
300.277703207
300.287709557
300.297682486
300.307609385
300.317478922
300.327281069
300.337007094
300.346649552
299.999994468
299.999983413
299.999972648
299.999962709
299.999954182
299.999947727
299.999944097
299.999944171
299.999948979
299.999959739
299.999977886
300.000005118
300.000043427
300.000095139
300.000162957
300.000249992
300.000359804
300.000496429
300.000664409
300.000868816
300.001115264
300.001409924
300.001759524
300.002171342
300.002653199
300.003213429
300.003860856
300.004604749
300.005454781
300.006420972
300.007513626
300.008743265
300.010120554
300.011656222
300.013360979
300.015245428
300.017319974
300.019594739
300.022079464
300.02478342
300.027715316
300.030883214
300.034294439
300.037955499
300.041872006
300.046048603
300.050488898
300.055195401
300.060169475
300.065411287
300.070919777
300.076692628
300.082726255
300.089015797
300.095555132
300.102336892
300.109352508
300.116592248
300.124045293
300.131699808
300.139543037
300.147561409
300.155740658
300.164065951
300.172522026
300.18109334
300.189764217
300.198519
300.2073422
300.216218639
300.225133587
300.234072888
300.243023069
300.251971434
300.260906146
300.269816279
300.278691863
300.287523902
300.296304367
300.305026451
300.313684302
299.99999415
299.99998244
299.999970982
299.999960301
299.999950966
299.999943615
299.999938973
299.999937881
299.999941318
299.999950438
299.999966599
299.999991401
300.000026717
300.000074733
300.000137983
300.00021938
300.000322254
300.000450374
300.000607977
300.000799785
300.001031022
300.001307417
300.001635206
300.002021126
300.002472396
300.002996698
300.003602142
300.004297228
300.005090801
300.005991993
300.007010165
300.008154838
300.009435623
300.010862144
300.012443956
300.014190463
300.016110833
300.018213914
300.020508145
300.023001475
300.02570128
300.028614281
300.03174647
300.035103039
300.038688315
300.042505698
300.04655761
300.050845451
300.055369563
300.060129201
300.065122518
300.070346556
300.075797253
300.081469457
300.087356951
300.093452497
300.099747879
300.106233973
300.112900816
300.119737688
300.126733211
300.133875447
300.141152005
300.148550161
300.156056972
300.163659395
300.171344405
300.179099113
300.186910874
300.194767392
300.202656807
300.210567789
300.218489598
300.226412146
300.234326042
300.242222617
300.250093944
300.257932966
300.265733513
300.273489902
300.281197121
299.999993786
299.999981331
299.999969084
299.999957558
299.999947306
299.999938943
299.999933162
299.99993076
299.999932664
299.999939958
299.999953914
299.999976026
300.000008037
300.000051981
300.000110207
300.000185414
300.000280682
300.000399492
300.000545751
300.000723805
300.000938457
300.001194961
300.00149903
300.001856819
300.002274912
300.002760296
300.00332033
300.003962703
300.004695393
300.005526608
300.006464729
300.007518248
300.008695695
300.010005569
300.011456259
300.013055971
300.014812644
300.016733875
300.018826841
300.021098224
300.023554135
300.026200051
300.029040744
300.032080229
300.035321705
300.038767514
300.042419101
300.046276986
300.050340743
300.054608985
300.05907937
300.0637486
300.068612447
300.073665776
300.078902587
300.084316062
300.089898621
300.095641988
300.101537267
300.107575022
300.11374536
300.120038026
300.126442491
300.132948052
300.139543923
300.146219327
300.152963585
300.159766202
300.166616942
300.173505899
300.180423557
300.187360844
300.194309177
300.201260489
300.20820726
300.215142525
300.222060098
300.228954277
300.235819786
300.242651885
300.249446343
299.999993374
299.999980072
299.999966932
299.999954452
299.999943168
299.999933669
299.999926614
299.999922755
299.999922961
299.99992824
299.999939773
299.999958937
299.99998734
300.000026848
300.000079614
300.000148109
300.000235143
300.000343891
300.000477907
300.000641142
300.000837948
300.001073083
300.001351705
300.001679359
300.002061965
300.002505787
300.003017402
300.003603664
300.004271657
300.005028645
300.005882013
300.006839211
300.007907685
300.009094815
300.010407839
300.011853785
300.013439404
300.015171095
300.017054838
300.019096131
300.021299927
300.023670573
300.026211764
300.028926493
300.031817011
300.034884797
300.038130532
300.041554084
300.045154499
300.04893
300.052878003
300.056995127
300.061277227
300.065719428
300.070316168
300.075061246
300.079947885
300.084968788
300.090116213
300.095382037
300.100757838
300.106234964
300.111804616
300.117457916
300.123185988
300.128980019
300.134831334
300.140731449
300.146672129
300.152645437
300.158643769
300.164659894
300.170686977
300.176718596
300.182748782
300.188772196
300.194783741
300.200778716
300.206752835
300.212702202
300.2186233
299.999992909
299.999978654
299.999964509
299.999950957
299.999938518
299.999927753
299.999919286
299.999913821
299.999912163
299.999915243
299.999924141
299.999940115
299.999964625
299.999999362
300.000046272
300.000107584
300.000185826
300.00028385
300.000404842
300.000552338
300.000730225
300.00094274
300.001194469
300.001490332
300.001835562
300.002235684
300.00269648
300.003223958
300.0038243
300.004503823
300.005268921
300.006126014
300.007081483
300.008141615
300.009312537
300.010600155
300.012010093
300.01354763
300.015217644
300.017024557
300.018972283
300.021064184
300.023303029
300.025690959
300.028229461
300.030919344
300.03376073
300.036753046
300.039895026
300.043184719
300.04661951
300.050196142
300.053910746
300.057758882
300.061735578
300.065835382
300.070052414
300.07438042
300.078812836
300.083342841
300.087963423
300.092667438
300.097447669
300.102296883
300.107207886
300.112173571
300.117186969
300.122241284
300.127329933
300.132446581
300.137585159
300.142739891
300.147905308
300.153076294
300.158248204
300.163416536
300.168577114
300.173726079
300.178859878
300.183975257
300.189069248
299.999992388
299.999977065
299.999961795
299.99994705
299.999933328
299.999921164
299.999911145
299.999903924
299.999900241
299.999900946
299.999907014
299.999919577
299.999939943
299.999969621
300.00001034
300.000064078
300.000133074
300.000219844
300.0003272
300.000458247
300.000616398
300.000805362
300.001029144
300.001292027
300.001598557
300.001953517
300.002361897
300.002828862
300.003359707
300.00395982
300.004634629
300.005389556
300.006229962
300.007161094
300.008188032
300.009315636
300.010548488
300.011890849
300.013346607
300.014919233
300.016611743
300.01842666
300.020365988
300.022431185
300.024623147
300.026942198
300.029388081
300.031959963
300.034656445
300.037475571
300.040414854
300.043471301
300.046641439
300.049921361
300.053306755
300.056792957
300.060374987
300.064047605
300.067805355
300.071642613
300.075553639
300.079532621
300.083573721
300.087671117
300.091819048
300.096011841
300.100243954
300.104509999
300.108804769
300.113123256
300.117460673
300.121812461
300.126174328
300.130542344
300.13491268
300.139281754
300.143646223
300.148002979
300.152349145
300.156682059
300.160999272
299.999991808
299.999975296
299.999958778
299.999942711
299.999927575
299.999913877
299.999902167
299.999893046
299.999887188
299.999885357
299.999888425
299.999897392
299.999913411
299.999937803
299.999972081
300.000017964
300.000077397
300.000152562
300.000245885
300.000360046
300.000497979
300.000662867
300.000858136
300.001087443
300.001354652
300.001663822
300.002019168
300.002425039
300.002885873
300.003406169
300.003990436
300.004643154
300.005368728
300.006171441
300.007055411
300.008024544
300.009082491
300.010232609
300.011477921
300.012821083
300.014264355
300.015809573
300.017458129
300.019210959
300.021068529
300.023030833
300.025097394
300.027267269
300.029539065
300.03191095
300.034380678
300.036945615
300.039602765
300.042348804
300.045180115
300.048092821
300.051082828
300.054145857
300.057277488
300.060473192
300.063728371
300.067038394
300.070398625
300.073804459
300.077251348
300.080734823
300.084250525
300.087794215