/*--------------------------------*- C++ -*----------------------------------*\
| =========                 |                                                 |
| \\      /  F ield         | OpenFOAM: The Open Source CFD Toolbox           |
|  \\    /   O peration     | Version:  2112                                  |
|   \\  /    A nd           | Website:  www.openfoam.com                      |
|    \\/     M anipulation  |                                                 |
\*---------------------------------------------------------------------------*/
FoamFile
{
    version     2.0;
    format      ascii;
    arch        "LSB;label=32;scalar=64";
    class       volVectorField;
    location    "0.4";
    object      U;
}
// * * * * * * * * * * * * * * * * * * * * * * * * * * * * * * * * * * * * * //

dimensions      [0 1 -1 0 0 0 0];

internalField   nonuniform List<vector> 
12013
(
(0.0999932339464 3.93309659431e-06 0)
(0.0999224644005 1.1189948554e-05 0)
(0.0997634876513 1.84553918309e-05 0)
(0.0995462663323 2.23724917437e-05 0)
(0.0993160678045 2.24735218851e-05 0)
(0.0991051043826 2.04106915034e-05 0)
(0.0989229216778 1.80756597896e-05 0)
(0.0987637061598 1.65217906946e-05 0)
(0.0986171080719 1.59371516944e-05 0)
(0.0984747078405 1.60654231879e-05 0)
(0.0983317340508 1.65718915241e-05 0)
(0.0981863284315 1.72131448809e-05 0)
(0.0980382630366 1.78607489223e-05 0)
(0.0978879609596 1.84688130739e-05 0)
(0.0977359654867 1.90324638047e-05 0)
(0.0975827247751 1.95634547133e-05 0)
(0.097428546777 2.00769472227e-05 0)
(0.0972736188225 2.05849945809e-05 0)
(0.0971180424862 2.10961463682e-05 0)
(0.0969618666428 2.16161036432e-05 0)
(0.0968051120659 2.21474783114e-05 0)
(0.0966477890562 2.26913942844e-05 0)
(0.0964899096214 2.32472853362e-05 0)
(0.0963314967826 2.38135913089e-05 0)
(0.0961725889699 2.43874728044e-05 0)
(0.0960132437171 2.49666105297e-05 0)
(0.0958535382977 2.55473199865e-05 0)
(0.0956935684225 2.61265155523e-05 0)
(0.0955334465482 2.67009875724e-05 0)
(0.0953732987466 2.72682192904e-05 0)
(0.0952132621715 2.78256940547e-05 0)
(0.0950534793915 2.83715571664e-05 0)
(0.094894093649 2.89052366504e-05 0)
(0.0947352431004 2.94268815256e-05 0)
(0.0945770541183 2.99378204294e-05 0)
(0.0944196376452 3.04409467408e-05 0)
(0.0942630828659 3.09392487305e-05 0)
(0.0941074511062 3.14382221874e-05 0)
(0.0939527732653 3.19448022388e-05 0)
(0.0937990438441 3.24653746884e-05 0)
(0.0936462177121 3.30101755086e-05 0)
(0.0934942078714 3.3588913013e-05 0)
(0.0933428811507 3.42137451916e-05 0)
(0.0931920564919 3.48977841766e-05 0)
(0.093041502583 3.56553850463e-05 0)
(0.09289093635 3.65029477905e-05 0)
(0.0927400214785 3.74577307515e-05 0)
(0.0925883669708 3.85390725007e-05 0)
(0.0924355248942 3.97679511835e-05 0)
(0.0922809875133 4.11676456115e-05 0)
(0.092124183097 4.27654137415e-05 0)
(0.0919644682997 4.45910214908e-05 0)
(0.0918011190015 4.66805482674e-05 0)
(0.0916333174534 4.90762706817e-05 0)
(0.0914601348655 5.18285264077e-05 0)
(0.0912805095531 5.49987693963e-05 0)
(0.0910932175727 5.8661970964e-05 0)
(0.0908968366892 6.29108736336e-05 0)
(0.0906897005291 6.78602626203e-05 0)
(0.090469840582 7.36539440918e-05 0)
(0.0902349119764 8.04721937834e-05 0)
(0.0899820990162 8.85440056794e-05 0)
(0.0897079930434 9.81613129687e-05 0)
(0.0894084319145 0.000109700714395 0)
(0.0890782886427 0.000123652907551 0)
(0.0887111848213 0.000140663871005 0)
(0.0882991022101 0.000161597638778 0)
(0.0878318429181 0.00018762423731 0)
(0.0872962685721 0.000220356065253 0)
(0.0866752112176 0.000262052969881 0)
(0.0859458851051 0.000315942886236 0)
(0.0850775336637 0.000386728372221 0)
(0.0840278777894 0.000481403650379 0)
(0.0827376562584 0.000610593201325 0)
(0.0811222305996 0.00079079110359 0)
(0.079058869124 0.00104814805905 0)
(0.0763654073545 0.00142503806789 0)
(0.0727540870924 0.00199358425767 0)
(0.0677783963218 0.00289831325537 0)
(0.0609142527485 0.0045413042616 0)
(0.0531879162815 0.00872916176281 0)
(0.0999944026844 1.19352341625e-05 0)
(0.0999253291667 3.41712566182e-05 0)
(0.0997688325847 5.64619557417e-05 0)
(0.0995538155296 6.85282009283e-05 0)
(0.0993250209524 6.89079386818e-05 0)
(0.0991145837511 6.26395595628e-05 0)
(0.0989323015252 5.55109932439e-05 0)
(0.0987726987276 5.07556673595e-05 0)
(0.0986256879588 4.89578881332e-05 0)
(0.0984829920609 4.93386271224e-05 0)
(0.0983398856112 5.08780621783e-05 0)
(0.0981945010049 5.2832796237e-05 0)
(0.0980465791058 5.48106983165e-05 0)
(0.0978965089697 5.6668346262e-05 0)
(0.0977448055075 5.83924359313e-05 0)
(0.0975918965928 6.00183444438e-05 0)
(0.097438076145 6.15911760037e-05 0)
(0.0972835220536 6.31481822896e-05 0)
(0.0971283299884 6.47154695277e-05 0)
(0.0969725447816 6.63096400315e-05 0)
(0.0968161844624 6.7939454407e-05 0)
(0.0966592575645 6.96078582028e-05 0)
(0.0965017746757 7.13130290828e-05 0)
(0.0963437575444 7.30502329217e-05 0)
(0.0961852437166 7.48113601741e-05 0)
(0.0960262896296 7.65879927472e-05 0)
(0.0958669710788 7.83700892218e-05 0)
(0.0957073823185 8.01479741349e-05 0)
(0.0955476339406 8.1911945697e-05 0)
(0.0953878497097 8.36533627999e-05 0)
(0.0952281640358 8.53651757399e-05 0)
(0.0950687167339 8.70423299786e-05 0)
(0.0949096480284 8.86825992725e-05 0)
(0.0947510926821 9.02865194977e-05 0)
(0.0945931740589 9.18586546594e-05 0)
(0.0944359998348 9.34064507994e-05 0)
(0.0942796563846 9.49411627372e-05 0)
(0.0941242031639 9.64784581132e-05 0)
(0.0939696684641 9.80386270549e-05 0)
(0.0938160457369 9.96436151706e-05 0)
(0.0936632894436 0.000101322163248 0)
(0.0935113123189 0.000103105633941 0)
(0.093359982385 0.000105030578461 0)
(0.0932091199666 0.000107137048167 0)
(0.0930584963495 0.000109469794221 0)
(0.0929078317748 0.000112077480141 0)
(0.0927567939937 0.000115013946993 0)
(0.0926049971457 0.000118337821506 0)
(0.0924519991771 0.000122113073083 0)
(0.0922973000412 0.000126411926175 0)
(0.0921403365392 0.000131315493037 0)
(0.091980475719 0.000136916944461 0)
(0.0918170065002 0.000143324732355 0)
(0.0916491261827 0.00015066757008 0)
(0.0914759250545 0.000159099108031 0)
(0.0912963653992 0.000168805827194 0)
(0.0911092536319 0.000180015800206 0)
(0.0909132062561 0.000193009815409 0)
(0.0907066071561 0.000208135789883 0)
(0.0904875534331 0.000225828350913 0)
(0.0902537870874 0.000246632138197 0)
(0.0900026086463 0.000271236996227 0)
(0.0897307664365 0.000300520474131 0)
(0.0894343138296 0.000335611907165 0)
(0.0891084221803 0.000377976690634 0)
(0.088747134146 0.00042953916825 0)
(0.088343034132 0.000492857746792 0)
(0.0878868019811 0.000571380253902 0)
(0.0873666033085 0.000669823717336 0)
(0.0867672469202 0.000794744787651 0)
(0.0860690127191 0.000955411075011 0)
(0.0852460144869 0.00116514686505 0)
(0.0842639154616 0.00144343524788 0)
(0.0830767799135 0.00181921640562 0)
(0.0816229822311 0.00233606279148 0)
(0.0798206560716 0.00306008024739 0)
(0.0775629335175 0.00409113197216 0)
(0.0747095877961 0.00557767408213 0)
(0.0711055548446 0.00773528309477 0)
(0.0668046911983 0.0108088208546 0)
(0.0630586022565 0.0146465708792 0)
(0.0999953873384 2.00089132345e-05 0)
(0.0999298436711 5.80406104271e-05 0)
(0.0997790681591 9.62856434193e-05 0)
(0.0995696088167 0.000117227188848 0)
(0.0993445238028 0.000118215347668 0)
(0.0991355109323 0.000107744279176 0)
(0.0989529747378 9.56733315374e-05 0)
(0.098792357358 8.75575653862e-05 0)
(0.0986442828001 8.44425097273e-05 0)
(0.0985008399904 8.50343835773e-05 0)
(0.0983574016345 8.76123356915e-05 0)
(0.0982120571773 9.09140222215e-05 0)
(0.0980644577184 9.42696741043e-05 0)
(0.0979149056989 9.74312309564e-05 0)
(0.0977638492302 0.000100373244521 0)
(0.0976116698636 0.000103154049594 0)
(0.0974586316627 0.000105848329325 0)
(0.0973048934911 0.000108518344869 0)
(0.0971505389839 0.00011120833218 0)
(0.0969956054667 0.000113945819835 0)
(0.0968401061708 0.000116745802602 0)
(0.0966840462535 0.000119612502132 0)
(0.0965274341028 0.000122543396708 0)
(0.0963702896457 0.000125529447034 0)
(0.0962126486147 0.000128557617621 0)
(0.0960545656338 0.000131612678031 0)
(0.0958961141967 0.000134678318908 0)
(0.0957373855169 0.000137737302331 0)
(0.0955784863969 0.00014077375035 0)
(0.0954195363767 0.0001437730245 0)
(0.0952606646681 0.000146722906689 0)
(0.0951020049841 0.000149615633385 0)
(0.0949436909158 0.000152447506414 0)
(0.0947858506091 0.000155219420418 0)
(0.0946286005424 0.000157939173622 0)
(0.0944720418577 0.000160619665283 0)
(0.0943162549755 0.000163280618946 0)
(0.0941612941464 0.000165948670638 0)
(0.0940071835406 0.000168657010213 0)
(0.093853913613 0.000171445740397 0)
(0.0937014375012 0.000174361985966 0)
(0.093549667923 0.000177460153237 0)
(0.0933984743683 0.000180801800139 0)
(0.0932476806551 0.000184455533843 0)
(0.093097062909 0.000188497432491 0)
(0.0929463482597 0.000193010905994 0)
(0.0927952133534 0.000198087219166 0)
(0.092643282406 0.000203826139725 0)
(0.0924901263343 0.000210337239192 0)
(0.0923352596044 0.000217743010576 0)
(0.0921781363039 0.000226180905613 0)
(0.0920181438912 0.000235809764913 0)
(0.0918545952791 0.000246813054445 0)
(0.091686717242 0.000259407887332 0)
(0.0915136354402 0.000273854306614 0)
(0.0913343562234 0.000290466779527 0)
(0.0911477411808 0.000309628329621 0)
(0.0909524767985 0.000331810047281 0)
(0.0907470371953 0.000357593985169 0)
(0.0905296365584 0.000387704695807 0)
(0.0902981713373 0.000423047746896 0)
(0.0900501471001 0.00046476344831 0)
(0.0897825880356 0.000514298177324 0)
(0.0894919229716 0.000573500012257 0)
(0.0891738408147 0.000644752143838 0)
(0.0888231068872 0.000731158672617 0)
(0.0884333291676 0.000836806399356 0)
(0.0879966607698 0.000967139575283 0)
(0.0875034223988 0.00112950107624 0)
(0.0869416314569 0.00133392267634 0)
(0.0862964318097 0.00159428292836 0)
(0.0855494507256 0.00193000924401 0)
(0.0846781753625 0.00236855659548 0)
(0.0836556113509 0.00294894236168 0)
(0.0824509045016 0.00372654037971 0)
(0.081032493319 0.00477876415419 0)
(0.0793763069232 0.00620935309278 0)
(0.0774817951942 0.0081449565078 0)
(0.075413680442 0.0107094413795 0)
(0.0734284978743 0.0139041995188 0)
(0.0722029942071 0.0171368362909 0)
(0.0999963018328 2.79011560763e-05 0)
(0.0999360735321 8.22363681273e-05 0)
(0.0997943874613 0.000137203057697 0)
(0.0995940566695 0.000167898562635 0)
(0.099375209882 0.000170160360362 0)
(0.0991686947464 0.000155816271516 0)
(0.0989858589003 0.000138856116463 0)
(0.0988236539133 0.000127284975677 0)
(0.0986738882791 0.000122721489652 0)
(0.098529261133 0.000123417824729 0)
(0.0983853079183 0.000126971225808 0)
(0.0982400464931 0.000131597518177 0)
(0.0980929811751 0.000136338608191 0)
(0.0979442736252 0.00014083248129 0)
(0.0977942643927 0.000145033523801 0)
(0.0976432620066 0.000149019005607 0)
(0.0974914834894 0.000152890488336 0)
(0.0973390583232 0.000156733983869 0)
(0.0971860520167 0.000160611019982 0)
(0.0970324905619 0.000164560034569 0)
(0.0968783800144 0.000168601462549 0)
(0.0967237212008 0.000172740822398 0)
(0.0965685194551 0.000176973810183 0)
(0.0964127922094 0.000181287198155 0)
(0.0962565733044 0.000185663148735 0)
(0.0960999148138 0.000190078832406 0)
(0.0959428867661 0.00019451129342 0)
(0.0957855763094 0.000198936283232 0)
(0.0956280851738 0.000203331182355 0)
(0.0954705260593 0.0002076759769 0)
(0.0953130203969 0.000211953582884 0)
(0.0951556931423 0.000216153031828 0)
(0.0949986676562 0.000220269810393 0)
(0.0948420619192 0.0002243058295 0)
(0.0946859825933 0.000228272006668 0)
(0.0945305207579 0.000232187815146 0)
(0.0943757480418 0.000236081221551 0)
(0.0942217111673 0.000239990477319 0)
(0.094068428312 0.000243962563942 0)
(0.0939158861916 0.000248055358421 0)
(0.0937640361618 0.000252335436776 0)
(0.093612791495 0.00025688076949 0)
(0.0934620250188 0.000261778761546 0)
(0.0933115664248 0.000267127292743 0)
(0.0931612008532 0.000273034419863 0)
(0.0930106669511 0.000279619690786 0)
(0.0928596556207 0.000287012154481 0)
(0.0927078089765 0.000295354151207 0)
(0.0925547183212 0.000304802004234 0)
(0.0923999222762 0.000315529009122 0)
(0.0922429032036 0.000327731350555 0)
(0.0920830813626 0.000341632603227 0)
(0.0919198081781 0.000357492955326 0)
(0.0917523567131 0.000375618547893 0)
(0.0915799089293 0.000396374677204 0)
(0.0914015392254 0.000420202432538 0)
(0.0912161942691 0.000447636849421 0)
(0.0910226679796 0.000479333959349 0)
(0.0908195712755 0.000516100966916 0)
(0.0906052949298 0.000558937140707 0)
(0.0903779648661 0.000609086164238 0)
(0.0901353901946 0.000668103121199 0)
(0.0898749984778 0.000737946869823 0)
(0.0895937606564 0.000821099046327 0)
(0.089288103155 0.000920728133117 0)
(0.0889538050458 0.00104091152182 0)
(0.088585884115 0.00118694253072 0)
(0.0881784768263 0.00136575372883 0)
(0.0877247290348 0.00158650615723 0)
(0.0872167289106 0.00186140820383 0)
(0.0866455511657 0.00220684671565 0)
(0.0860015414706 0.00264491808989 0)
(0.085275080453 0.00320542152987 0)
(0.0844582628599 0.00392824909353 0)
(0.0835482497856 0.00486571881968 0)
(0.0825535463308 0.00608338062918 0)
(0.08150476745 0.00765546723568 0)
(0.080470807535 0.00964685465577 0)
(0.07958165834 0.0120664935994 0)
(0.0790531122628 0.0147557968749 0)
(0.0791489734366 0.0171471865472 0)
(0.0999972135545 3.53768120675e-05 0)
(0.0999438789876 0.000106062982673 0)
(0.0998144276263 0.000178303204791 0)
(0.0996266992867 0.000219784236761 0)
(0.0994166843727 0.000224379311237 0)
(0.0992139243632 0.00020689158436 0)
(0.0990309622573 0.000185350999394 0)
(0.0988667882635 0.000170320178397 0)
(0.0987148444191 0.000164153188571 0)
(0.0985686882093 0.000164772696104 0)
(0.0984240971983 0.000169156907276 0)
(0.0982790032954 0.000175017149821 0)
(0.0981327161572 0.000181101919812 0)
(0.0979852083093 0.000186922124412 0)
(0.0978366752806 0.000192401403475 0)
(0.0976873263453 0.000197626750993 0)
(0.0975373150187 0.000202721775515 0)
(0.097386731247 0.000207792922428 0)
(0.0972356161448 0.000212917196056 0)
(0.0970839808096 0.000218142546118 0)
(0.0969318220694 0.000223493856507 0)
(0.096779134997 0.000228977874641 0)
(0.0966259214622 0.000234587222518 0)
(0.0964721965733 0.000240305184247 0)
(0.0963179912439 0.000246107438956 0)
(0.0961633545584 0.000251964511375 0)
(0.0960083530027 0.000257846058601 0)
(0.0958530679866 0.000263721252331 0)
(0.0956975943325 0.000269561378769 0)
(0.0955420363381 0.000275340480369 0)
(0.09538650495 0.00028103790503 0)
(0.0952311134152 0.000286639937548 0)
(0.0950759723004 0.000292141466427 0)
(0.0949211862407 0.00029754643904 0)
(0.0947668488972 0.000302869011335 0)
(0.0946130389109 0.000308135305153 0)
(0.0944598166242 0.000313382491573 0)
(0.0943072194125 0.00031865995952 0)
(0.0941552587476 0.000324029659397 0)
(0.0940039169113 0.000329566296899 0)
(0.0938531442687 0.000335356814287 0)
(0.093702856472 0.000341501957198 0)
(0.0935529317328 0.000348115674453 0)
(0.0934032094835 0.000355324868241 0)
(0.0932534883731 0.000363270725827 0)
(0.0931035241862 0.000372106734158 0)
(0.0929530295104 0.000382001960909 0)
(0.0928016723871 0.000393140471351 0)
(0.0926490742954 0.000405724465899 0)
(0.092494809188 0.000419979354882 0)
(0.0923384000554 0.000436158089058 0)
(0.0921793146376 0.000454548827378 0)
(0.0920169603705 0.00047548604218 0)
(0.0918506760543 0.000499361719843 0)
(0.0916797228381 0.000526642738409 0)
(0.0915032714956 0.000557888528264 0)
(0.0913203873285 0.0005937767406 0)
(0.091130012454 0.000635133007537 0)
(0.0909309444724 0.000682967528677 0)
(0.0907218130097 0.000738522354391 0)
(0.0905010515361 0.000803331775704 0)
(0.0902668685758 0.000879299558677 0)
(0.0900172164403 0.000968797267145 0)
(0.089749759588 0.00107479689636 0)
(0.0894618492051 0.00120104068213 0)
(0.0891505075152 0.0013522678228 0)
(0.0888124359928 0.00153451439151 0)
(0.0884440674553 0.00175550949743 0)
(0.0880416972163 0.00202519654912 0)
(0.0876017525113 0.00235640570951 0)
(0.0871212909712 0.002765703455 0)
(0.0865988791561 0.00327439813933 0)
(0.0860360794034 0.00390959983143 0)
(0.0854398677506 0.00470501822805 0)
(0.084826402351 0.00570072756589 0)
(0.0842265451577 0.00694024697893 0)
(0.0836930869484 0.00846166035796 0)
(0.0833080831285 0.0102772406897 0)
(0.0831854820983 0.0123341413625 0)
(0.0834553122438 0.0144488550121 0)
(0.0841916278972 0.0162267311317 0)
(0.0999981326605 4.21691064959e-05 0)
(0.0999528665499 0.000128768486257 0)
(0.0998381826958 0.000218578551565 0)
(0.0996660579729 0.000272003667241 0)
(0.0994673262615 0.000280393455005 0)
(0.099269747715 0.000260922196546 0)
(0.0990871623512 0.000235402458079 0)
(0.0989209801351 0.000217025642957 0)
(0.0987666449515 0.000209090282581 0)
(0.0986188014699 0.00020938096274 0)
(0.0984735624556 0.000214367409152 0)
(0.0983287827413 0.000221297518381 0)
(0.0981835501636 0.000228627908195 0)
(0.0980376134127 0.000235729807086 0)
(0.0978909930193 0.000242479778358 0)
(0.09774377776 0.000248962749897 0)
(0.0975960432189 0.000255315488768 0)
(0.0974478306375 0.000261660451611 0)
(0.0972991513318 0.000268085704528 0)
(0.0971499980526 0.000274647205957 0)
(0.0970003567959 0.000281372887035 0)
(0.0968502160587 0.000288268998751 0)
(0.0966995738766 0.000295325924391 0)
(0.0965484423557 0.000302521745652 0)
(0.0963968496333 0.000309825038706 0)
(0.0962448414315 0.000317200878759 0)
(0.0960924791571 0.00032461110684 0)
(0.0959398380889 0.000332018690957 0)
(0.0957870045604 0.000339389001182 0)
(0.0956340720565 0.000346691232606 0)
(0.0954811392411 0.000353902074847 0)
(0.0953283052309 0.000361005920812 0)
(0.0951756652146 0.000367997426951 0)
(0.0950233079088 0.000374883418542 0)
(0.0948713118196 0.000381681880205 0)
(0.0947197413692 0.000388425719184 0)
(0.0945686441331 0.000395161280427 0)
(0.0944180475664 0.000401949324777 0)
(0.0942679560129 0.000408866410214 0)
(0.0941183481777 0.000416003418337 0)
(0.0939691745673 0.000423467756037 0)
(0.0938203554545 0.000431382151958 0)
(0.0936717782614 0.000439885779504 0)
(0.0935232963065 0.000449134492519 0)
(0.0933747266802 0.000459300167993 0)
(0.0932258494169 0.000470571252422 0)
(0.0930764066966 0.000483154024822 0)
(0.0929261008464 0.000497273404567 0)
(0.0927745947167 0.000513176300717 0)
(0.0926215097031 0.000531136981106 0)
(0.092466423248 0.000551462777385 0)
(0.0923088668633 0.000574502771565 0)
(0.0921483217611 0.000600660128354 0)
(0.09198421461 0.000630406077987 0)
(0.0918159105929 0.000664297944743 0)
(0.0916427055208 0.000703001262805 0)
(0.0914638187573 0.000747316073493 0)
(0.0912783814788 0.000798210598097 0)
(0.0910854271664 0.000856861155651 0)
(0.0908838826059 0.000924701152457 0)
(0.0906725590141 0.00100348423403 0)
(0.0904501473092 0.0010953615091 0)
(0.0902152203251 0.00120297884941 0)
(0.0899662465784 0.00132960085805 0)
(0.089701621518 0.00147926764968 0)
(0.0894197304657 0.00165699070895 0)
(0.0891190584439 0.00186900125622 0)
(0.0887983736012 0.00212305363164 0)
(0.088457021731 0.00242879473285 0)
(0.0880953905255 0.00279818580425 0)
(0.0877156210637 0.00324595108432 0)
(0.087322668289 0.00378996693872 0)
(0.0869258437218 0.00445140716902 0)
(0.0865409574827 0.00525427308326 0)
(0.0861931086889 0.00622361356282 0)
(0.0859199134264 0.00738123053839 0)
(0.0857743182049 0.00873699765989 0)
(0.0858248355871 0.0102734463134 0)
(0.0861488106799 0.011922170282 0)
(0.0868105389696 0.0135352135675 0)
(0.0878117694046 0.0148692928053 0)
(0.0999990246502 4.80273863154e-05 0)
(0.0999624137593 0.000149640984975 0)
(0.0998640633109 0.000257033976583 0)
(0.0997097054406 0.000323627929425 0)
(0.0995243360452 0.000337624115285 0)
(0.0993334791934 0.000317741954036 0)
(0.0991521745241 0.000289149007333 0)
(0.0989844100442 0.000267684019826 0)
(0.0988278621988 0.000257834178103 0)
(0.0986784459883 0.000257492126842 0)
(0.0985327117466 0.000262778042762 0)
(0.0983884756784 0.000270544370369 0)
(0.0982446053957 0.000278967879927 0)
(0.098100612168 0.000287266755475 0)
(0.0979563255286 0.000295251689044 0)
(0.0978116996428 0.000302990454606 0)
(0.0976667222974 0.000310621992499 0)
(0.0975213791447 0.000318276195461 0)
(0.0973756472619 0.000326048533909 0)
(0.0972294990244 0.000333999275374 0)
(0.0970829078551 0.000342157962404 0)
(0.096935855392 0.000350528819266 0)
(0.0967883355278 0.000359098746237 0)
(0.0966403569571 0.000367839577737 0)
(0.0964919449546 0.000376714416819 0)
(0.0963431411832 0.000385680750588 0)
(0.096194001445 0.00039469444924 0)
(0.0960445932346 0.000403712769011 0)
(0.0958949926646 0.000412695354999 0)
(0.0957452815726 0.000421608563147 0)
(0.0955955440462 0.000430426635576 0)
(0.0954458628007 0.000439133231188 0)
(0.095296316517 0.00044772420418 0)
(0.0951469765519 0.000456208834624 0)
(0.0949979046461 0.000464610676886 0)
(0.0948491504851 0.000472968973076 0)
(0.094700748642 0.000481338676941 0)
(0.0945527168997 0.000489792263348 0)
(0.094405053436 0.000498419032919 0)
(0.0942577349089 0.000507326335201 0)
(0.0941107147097 0.000516639282283 0)
(0.0939639203851 0.000526502233732 0)
(0.0938172525925 0.00053707791937 0)
(0.0936705831652 0.000548548641581 0)
(0.0935237539995 0.000561115141841 0)
(0.0933765760391 0.000574998317373 0)
(0.0932288285146 0.000590438211545 0)
(0.0930802584527 0.00060769809521 0)
(0.092930580147 0.000627065883378 0)
(0.0927794749258 0.000648859758804 0)
(0.0926265892897 0.000673435779435 0)
(0.0924715342634 0.000701196895189 0)
(0.0923138845762 0.000732605686111 0)
(0.0921531751458 0.000768200377173 0)
(0.0919888999917 0.000808612461676 0)
(0.0918205090194 0.000854591592302 0)
(0.0916474064671 0.000907031781553 0)
(0.0914689506038 0.00096700476463 0)
(0.0912844530236 0.00103580010865 0)
(0.0910931853331 0.00111497305653 0)
(0.0908943882359 0.0012064015497 0)
(0.0906872900147 0.00131235642373 0)
(0.0904711387682 0.00143558627519 0)
(0.0902452524962 0.00157941796775 0)
(0.0900090965419 0.00174787887817 0)
(0.0897624012923 0.00194583935665 0)
(0.089505334767 0.00217917661258 0)
(0.0892387549221 0.00245495440513 0)
(0.0889645695893 0.00278160401223 0)
(0.0886862415387 0.00316908182053 0)
(0.0884094827783 0.00362894123343 0)
(0.0881431767107 0.00417422500556 0)
(0.0879005546751 0.00481900084408 0)
(0.0877005925003 0.00557725122544 0)
(0.087569467501 0.00646068359718 0)
(0.0875416636063 0.00747482881592 0)
(0.0876598531088 0.00861272460778 0)
(0.087971988567 0.00984574734758 0)
(0.0885231868691 0.0111124607916 0)
(0.0893393593839 0.0123095237182 0)
(0.0904012131755 0.013294869307 0)
(0.0999998297243 5.27734996603e-05 0)
(0.0999717728231 0.00016811265242 0)
(0.0998901377549 0.000292813997473 0)
(0.0997546101253 0.000373777078962 0)
(0.0995841027191 0.000395426806078 0)
(0.0994015180083 0.000377043203466 0)
(0.0992227911972 0.000346566871283 0)
(0.0990543843804 0.000322438418414 0)
(0.0988962588358 0.000310582582257 0)
(0.098745710916 0.000309287948742 0)
(0.098599831313 0.000314522436412 0)
(0.0984564651793 0.000322837583329 0)
(0.0983142944631 0.00033215429747 0)
(0.0981726053523 0.000341528086616 0)
(0.0980310374602 0.000350685494662 0)
(0.0978894074979 0.000359658636287 0)
(0.097747610628 0.000368575154213 0)
(0.0976055736601 0.000377562843881 0)
(0.0974632374601 0.000386719707992 0)
(0.0973205522862 0.000396105400829 0)
(0.0971774787111 0.000405748240819 0)
(0.0970339909637 0.000415649722408 0)
(0.0968900785086 0.000425791057882 0)
(0.0967457468604 0.000436138121664 0)
(0.0966010176954 0.000446647762313 0)
(0.0964559278644 0.000457270861711 0)
(0.0963105266684 0.000467957380514 0)
(0.0961648724273 0.000478659215343 0)
(0.0960190301826 0.000489332934299 0)
(0.0958730680792 0.000499942603161 0)
(0.0957270544514 0.000510460760642 0)
(0.0955810552395 0.000520872062642 0)
(0.095435131162 0.000531174518787 0)
(0.0952893361747 0.000541380551974 0)
(0.0951437158695 0.000551518754645 0)
(0.0949983050077 0.000561635147367 0)
(0.0948531268279 0.000571792666016 0)
(0.0947081909637 0.000582074244491 0)
(0.0945634915998 0.000592580913785 0)
(0.094419005943 0.000603434376471 0)
(0.0942746930014 0.000614776206341 0)
(0.0941304922053 0.000626769119178 0)
(0.0939863212456 0.00063959698528 0)
(0.0938420756465 0.000653465102686 0)
(0.0936976277014 0.000668600326717 0)
(0.0935528258476 0.000685250516338 0)
(0.0934074949056 0.00070368671813 0)
(0.0932614350501 0.00072420364692 0)
(0.0931144223565 0.000747124347991 0)
(0.0929662097226 0.00077280401797 0)
(0.0928165262489 0.000801638379817 0)
(0.0926650781915 0.00083407336414 0)
(0.0925115500249 0.000870617211021 0)
(0.0923556051263 0.000911856223805 0)
(0.0921968877223 0.000958474962826 0)
(0.0920350256205 0.00101127589082 0)
(0.0918696352304 0.00107120909232 0)
(0.0917003284843 0.0011393998179 0)
(0.0915267250638 0.00121718566514 0)
(0.0913484693026 0.00130615798303 0)
(0.091165255438 0.00140820820253 0)
(0.0909768659787 0.00152558393492 0)
(0.0907832233213 0.0016609498318 0)
(0.090584464796 0.00181745802137 0)
(0.0903810461655 0.0019988218736 0)
(0.0901738838742 0.00220939343519 0)
(0.0899645476064 0.00245423556959 0)
(0.0897555153565 0.00273917593554 0)
(0.0895505103235 0.0030708225281 0)
(0.089354928934 0.00345650564801 0)
(0.0891763700279 0.00390409428602 0)
(0.0890252598062 0.00442160556479 0)
(0.0889155278106 0.00501649246003 0)
(0.088865244805 0.00569445170895 0)
(0.0888970175375 0.00645755116205 0)
(0.0890377893246 0.00730148113106 0)
(0.0893174799679 0.00821183057283 0)
(0.0897656651271 0.00915966214678 0)
(0.0904053810173 0.0100974784477 0)
(0.091243471338 0.0109580811465 0)
(0.0922588506315 0.0116605840474 0)
(0.10000048766 5.63381551147e-05 0)
(0.0999802299597 0.000183847570427 0)
(0.0999145079951 0.000325317729783 0)
(0.0997976952392 0.000421721886186 0)
(0.0996428344986 0.000453144908503 0)
(0.0994699399876 0.000438375589073 0)
(0.0992953749734 0.000407435495967 0)
(0.0991277211882 0.000381243384536 0)
(0.0989690879699 0.000367386379334 0)
(0.0988181757152 0.000364849313498 0)
(0.0986727025906 0.000369671581843 0)
(0.0985306319099 0.000378220643737 0)
(0.0983905244184 0.000388198861203 0)
(0.0982514797656 0.000398497577338 0)
(0.0981129672873 0.000408742189938 0)
(0.0979746740076 0.000418910721103 0)
(0.0978364056208 0.000429104048585 0)
(0.0976980311223 0.000439439524163 0)
(0.0975594547428 0.000450008233971 0)
(0.0974206046363 0.000460866334169 0)
(0.0972814288939 0.000472036846281 0)
(0.0971418942952 0.000483516632007 0)
(0.0970019857356 0.000495280221991 0)
(0.0968617051229 0.000507287147503 0)
(0.0967210700703 0.000519487415175 0)
(0.0965801116895 0.000531826576486 0)
(0.0964388714484 0.00054424893152 0)
(0.0962973977632 0.000556702963552 0)
(0.0961557432502 0.000569142832637 0)
(0.0960139613905 0.000581531245072 0)
(0.095872104423 0.000593841767026 0)
(0.0957302213826 0.000606060186203 0)
(0.0955883560275 0.000618187153352 0)
(0.0954465456781 0.000630239455722 0)
(0.0953048212248 0.00064225014246 0)
(0.0951632053724 0.000654270979757 0)
(0.0950217121038 0.000666373072903 0)
(0.0948803459155 0.000678646840047 0)
(0.0947391000844 0.000691204132591 0)
(0.094597956343 0.000704177790323 0)
(0.0944568833322 0.000717723467052 0)
(0.0943158355129 0.000732018774818 0)
(0.0941747526827 0.000747264768959 0)
(0.0940335592357 0.000763685624033 0)
(0.0938921631677 0.000781528221985 0)
(0.0937504569427 0.000801063092854 0)
(0.0936083171174 0.000822584258446 0)
(0.0934656050645 0.000846411490262 0)
(0.0933221680853 0.00087289321903 0)
(0.0931778405643 0.000902411983457 0)
(0.0930324457851 0.000935390377128 0)
(0.0928857975279 0.000972301842716 0)
(0.0927377040707 0.00101368161984 0)
(0.0925879725918 0.00106014219799 0)
(0.092436413313 0.00111238992785 0)
(0.0922828483132 0.00117124580534 0)
(0.09212712196 0.00123766769859 0)
(0.0919691146002 0.00131277634573 0)
(0.0918087633858 0.00139788367567 0)
(0.0916460881312 0.00149452333512 0)
(0.0914812278364 0.0016044849293 0)
(0.0913144883257 0.00172984791688 0)
(0.0911464065041 0.00187301744544 0)
(0.0909778336448 0.00203675707157 0)
(0.0908100420026 0.00222421633201 0)
(0.0906448643808 0.00243894409669 0)
(0.0904848655791 0.0026848818715 0)
(0.0903335552327 0.00296631948615 0)
(0.0901956414686 0.00328779620212 0)
(0.0900773224369 0.00365391731075 0)
(0.0899866026607 0.00406905257886 0)
(0.0899336024042 0.00453686965933 0)
(0.0899308089336 0.00505964860924 0)
(0.0899931673881 0.00563732484826 0)
(0.0901378712456 0.00626621151819 0)
(0.090383638201 0.00693741474221 0)
(0.0907491975941 0.00763505424181 0)
(0.0912507193385 0.00833463361474 0)
(0.0918979908531 0.00900226103643 0)
(0.0926895017874 0.00959585632712 0)
(0.0936077232298 0.010069725535 0)
(0.100000960104 5.87716170094e-05 0)
(0.099987263763 0.000196780141172 0)
(0.0999356952378 0.000354266369391 0)
(0.0998364352162 0.000466959880876 0)
(0.0996972621427 0.000510169892649 0)
(0.0995351920763 0.000501177449217 0)
(0.0993664692391 0.000471338459067 0)
(0.0992012563085 0.000443846887043 0)
(0.0990435101644 0.000428124592806 0)
(0.0988932641138 0.000424135022547 0)
(0.0987489217193 0.000428219241329 0)
(0.098608658981 0.000436692333 0)
(0.0984710002855 0.000447091268556 0)
(0.0983349178722 0.000458150116377 0)
(0.0981997458149 0.000469381040502 0)
(0.0980650609749 0.000480691348472 0)
(0.0979305897049 0.000492142554188 0)
(0.0977961476341 0.000503829234355 0)
(0.0976616052093 0.000515828596881 0)
(0.0975268700528 0.000528187675973 0)
(0.0973918782372 0.000540921587151 0)
(0.0972565895852 0.000554019138787 0)
(0.0971209841205 0.000567447752438 0)
(0.0969850598444 0.00058116012713 0)
(0.096848829531 0.00059509991114 0)
(0.0967123173636 0.000609207366183 0)
(0.0965755560399 0.00062342320615 0)
(0.096438582946 0.000637693194405 0)
(0.0963014375428 0.000651970556983 0)
(0.0961641589975 0.000666218023763 0)
(0.0960267837805 0.00068041130306 0)
(0.0958893450986 0.000694538358289 0)
(0.0957518718805 0.000708602976791 0)
(0.095614387699 0.000722625559775 0)
(0.0954769116628 0.000736643719336 0)
(0.0953394580307 0.000750713725831 0)
(0.0952020354963 0.000764912569087 0)
(0.0950646473174 0.00077933685385 0)
(0.0949272904321 0.000794106204357 0)
(0.0947899549054 0.000809361857727 0)
(0.0946526231302 0.000825269056769 0)
(0.0945152695494 0.00084201652734 0)
(0.0943778602911 0.00085981783023 0)
(0.0942403525026 0.00087890970001 0)
(0.0941026954098 0.000899553023709 0)