/*--------------------------------*- C++ -*----------------------------------*\
| =========                 |                                                 |
| \\      /  F ield         | OpenFOAM: The Open Source CFD Toolbox           |
|  \\    /   O peration     | Version:  2112                                  |
|   \\  /    A nd           | Website:  www.openfoam.com                      |
|    \\/     M anipulation  |                                                 |
\*---------------------------------------------------------------------------*/
FoamFile
{
    version     2.0;
    format      ascii;
    arch        "LSB;label=32;scalar=64";
    class       volVectorField;
    location    "4";
    object      flux;
}
// * * * * * * * * * * * * * * * * * * * * * * * * * * * * * * * * * * * * * //

dimensions      [0 1 -1 1 0 0 0];

internalField   nonuniform List<vector> 
512
(
(0.0201755 -23.2705 0)
(0.0579113 -23.1078 0)
(0.088791 -22.8038 0)
(0.110733 -22.393 0)
(0.12377 -21.9135 0)
(0.129256 -21.399 0)
(0.129001 -20.8765 0)
(0.124755 -20.365 0)
(0.117938 -19.8772 0)
(0.1096 -19.4208 0)
(0.100462 -19 0)
(0.0909853 -18.6169 0)
(0.0814438 -18.2721 0)
(0.0719776 -17.9654 0)
(0.0626359 -17.6963 0)
(0.0534071 -17.4643 0)
(0.0442412 -17.2691 0)
(0.0350661 -17.1104 0)
(0.025802 -16.9885 0)
(0.0163751 -16.9039 0)
(0.00673522 -16.8574 0)
(-0.00312036 -16.8499 0)
(-0.0131127 -16.8823 0)
(-0.0230338 -16.9548 0)
(-0.0324871 -17.0668 0)
(-0.0408222 -17.2153 0)
(-0.0470891 -17.3944 0)
(-0.0500583 -17.5936 0)
(-0.0483857 -17.7972 0)
(-0.0410014 -17.9836 0)
(-0.027722 -18.1281 0)
(-0.00983152 -18.2077 0)
(0.0611805 -23.3111 0)
(0.175451 -23.1431 0)
(0.268608 -22.8304 0)
(0.334425 -22.4101 0)
(0.373201 -21.9221 0)
(0.389206 -21.401 0)
(0.388006 -20.8737 0)
(0.374911 -20.359 0)
(0.354197 -19.8692 0)
(0.329004 -19.4117 0)
(0.301474 -18.9904 0)
(0.272976 -18.6071 0)
(0.244317 -18.2623 0)
(0.215906 -17.9558 0)
(0.187884 -17.6868 0)
(0.16021 -17.4549 0)
(0.13273 -17.2597 0)
(0.105224 -17.1009 0)
(0.0774503 -16.9789 0)
(0.0491819 -16.8941 0)
(0.0202628 -16.8473 0)
(-0.00932396 -16.8396 0)
(-0.0393532 -16.8719 0)
(-0.0692161 -16.9446 0)
(-0.0977388 -17.0573 0)
(-0.122982 -17.2073 0)
(-0.142091 -17.389 0)
(-0.151335 -17.5922 0)
(-0.146586 -17.8011 0)
(-0.124479 -17.9937 0)
(-0.0843204 -18.144 0)
(-0.0299385 -18.2272 0)
(0.104207 -23.3937 0)
(0.29828 -23.2144 0)
(0.455263 -22.8838 0)
(0.564883 -22.4441 0)
(0.628336 -21.9389 0)
(0.653462 -21.4044 0)
(0.649994 -20.8676 0)
(0.626983 -20.3466 0)
(0.591587 -19.853 0)
(0.549004 -19.3934 0)
(0.50274 -18.9712 0)
(0.45502 -18.5876 0)
(0.407141 -18.2429 0)
(0.35975 -17.9365 0)
(0.313057 -17.6678 0)
(0.266976 -17.4361 0)
(0.221237 -17.2409 0)
(0.175461 -17.082 0)
(0.129233 -16.9597 0)
(0.0821617 -16.8744 0)
(0.0339667 -16.8271 0)
(-0.0154084 -16.819 0)
(-0.0656275 -16.851 0)
(-0.115727 -16.9241 0)
(-0.163805 -17.0381 0)
(-0.206672 -17.191 0)
(-0.239556 -17.3778 0)
(-0.256111 -17.589 0)
(-0.249128 -17.8087 0)
(-0.212476 -18.014 0)
(-0.144478 -18.1764 0)
(-0.051419 -18.2672 0)
(0.150811 -23.521 0)
(0.430396 -23.3236 0)
(0.653766 -22.9644 0)
(0.806886 -22.4945 0)
(0.893071 -21.9629 0)
(0.924876 -21.4083 0)
(0.916888 -20.8574 0)
(0.882167 -20.3273 0)
(0.830793 -19.8283 0)
(0.769943 -19.3657 0)
(0.70439 -18.9421 0)
(0.637125 -18.5582 0)
(0.569863 -18.2136 0)
(0.503441 -17.9076 0)
(0.438098 -17.6393 0)
(0.373678 -17.4079 0)
(0.309773 -17.2127 0)
(0.245831 -17.0537 0)
(0.181244 -16.9309 0)
(0.115439 -16.845 0)
(0.047981 -16.7969 0)
(-0.0212676 -16.788 0)
(-0.0919193 -16.8196 0)
(-0.162732 -16.893 0)
(-0.231165 -17.0088 0)
(-0.292852 -17.1658 0)
(-0.341103 -17.3602 0)
(-0.366773 -17.5833 0)
(-0.359092 -17.8195 0)
(-0.308324 -18.0447 0)
(-0.210906 -18.2263 0)
(-0.0753383 -18.3295 0)
(0.202909 -23.6977 0)
(0.576584 -23.4732 0)
(0.869845 -23.0726 0)
(1.06563 -22.5602 0)
(1.17143 -21.9927 0)
(1.20625 -21.4112 0)
(1.19049 -20.8419 0)
(1.14154 -20.3001 0)
(1.07239 -19.7942 0)
(0.992083 -19.3281 0)
(0.906496 -18.903 0)
(0.819257 -18.5187 0)
(0.732404 -18.1745 0)
(0.64689 -17.8692 0)
(0.562936 -17.6015 0)
(0.480278 -17.3704 0)
(0.398344 -17.1754 0)
(0.316386 -17.016 0)
(0.233584 -16.8926 0)
(0.149152 -16.8058 0)
(0.0624638 -16.7566 0)
(-0.0267571 -16.7466 0)
(-0.118154 -16.7774 0)
(-0.210318 -16.8511 0)
(-0.300202 -16.9689 0)
(-0.382385 -17.131 0)
(-0.448294 -17.3351 0)
(-0.485776 -17.574 0)
(-0.479835 -17.8329 0)
(-0.415859 -18.086 0)
(-0.286874 -18.2956 0)
(-0.103018 -18.4173 0)
(0.263016 -23.9303 0)
(0.742898 -23.6669 0)
(1.11031 -23.2088 0)
(1.34687 -22.6395 0)
(1.46756 -22.0259 0)
(1.50029 -21.4109 0)
(1.47242 -20.8194 0)
(1.40599 -20.2639 0)
(1.31682 -19.7501 0)
(1.21558 -19.2801 0)
(1.10905 -18.8535 0)
(1.00133 -18.4692 0)
(0.894646 -18.1256 0)
(0.789985 -17.8211 0)
(0.687486 -17.5542 0)
(0.586731 -17.3237 0)
(0.486955 -17.1288 0)
(0.387184 -16.9692 0)
(0.286362 -16.845 0)
(0.183457 -16.757 0)
(0.0776055 -16.7063 0)
(-0.0316792 -16.6946 0)
(-0.144176 -16.7243 0)
(-0.258456 -16.7978 0)
(-0.371151 -16.9176 0)
(-0.475979 -17.0855 0)
(-0.562591 -17.3011 0)
(-0.615642 -17.5595 0)
(-0.615092 -17.8474 0)
(-0.539677 -18.1379 0)
(-0.376557 -18.3866 0)
(-0.136209 -18.5352 0)
(0.334624 -24.2288 0)
(0.937352 -23.9092 0)
(1.38352 -23.3726 0)
(1.65707 -22.73 0)
(1.78572 -22.0593 0)
(1.8095 -21.4048 0)
(1.76402 -20.7878 0)
(1.67615 -20.2171 0)
(1.5643 -19.6951 0)
(1.44043 -19.2211 0)
(1.31194 -18.7932 0)
(1.18318 -18.4093 0)
(1.05642 -18.0667 0)
(0.932581 -17.7635 0)
(0.81164 -17.4977 0)
(0.692981 -17.2679 0)
(0.575602 -17.0733 0)
(0.458282 -16.9133 0)
(0.339695 -16.7882 0)
(0.218531 -16.6986 0)
(0.0936355 -16.6459 0)
(-0.0357709 -16.6321 0)
(-0.169729 -16.6599 0)
(-0.306971 -16.7327 0)
(-0.444054 -16.854 0)
(-0.57412 -17.0277 0)
(-0.685279 -17.256 0)
(-0.758917 -17.5373 0)
(-0.769069 -17.8609 0)
(-0.685455 -18.2 0)
(-0.485532 -18.5022 0)
(-0.177365 -18.69 0)
(0.422813 -24.6071 0)
(1.17097 -24.2057 0)
(1.69992 -23.5629 0)
(2.00351 -22.8273 0)
(2.13014 -22.0887 0)
(2.13605 -21.3892 0)
(2.06626 -20.7446 0)
(1.95236 -20.1581 0)
(1.81484 -19.6279 0)
(1.66648 -19.1504 0)
(1.51495 -18.7219 0)
(1.36458 -18.3388 0)
(1.21752 -17.9979 0)
(1.0745 -17.6964 0)
(0.935271 -17.432 0)
(0.798956 -17.2032 0)
(0.66428 -17.0088 0)
(0.529739 -16.8484 0)
(0.393712 -16.7221 0)
(0.254576 -16.6307 0)
(0.110828 -16.5756 0)
(-0.0386931 -16.559 0)
(-0.194434 -16.5841 0)
(-0.355504 -16.6551 0)
(-0.518694 -16.7771 0)
(-0.676979 -16.956 0)
(-0.817347 -17.1975 0)
(-0.918075 -17.5041 0)
(-0.946482 -17.8703 0)
(-0.860344 -18.271 0)
(-0.621538 -18.6462 0)
(-0.230086 -18.8913 0)
(0.535307 -25.0856 0)
(1.45942 -24.5626 0)
(2.07269 -23.7763 0)
(2.39419 -22.9255 0)
(2.50479 -22.1082 0)
(2.48155 -21.3598 0)
(2.37958 -20.6867 0)
(2.23451 -20.0849 0)
(2.06813 -19.5474 0)
(1.89339 -19.0674 0)
(1.71773 -18.6392 0)
(1.54521 -18.2577 0)
(1.37767 -17.919 0)
(1.21553 -17.6197 0)
(1.05823 -17.3572 0)
(0.904575 -17.1296 0)
(0.752977 -16.9356 0)
(0.601616 -16.7748 0)
(0.448553 -16.6471 0)
(0.291817 -16.5535 0)
(0.129504 -16.4953 0)
(-0.0400241 -16.4751 0)
(-0.217775 -16.4964 0)
(-0.403482 -16.5644 0)
(-0.594543 -16.6856 0)
(-0.784308 -16.8684 0)
(-0.959324 -17.1222 0)
(-1.09532 -17.4558 0)
(-1.15252 -17.8707 0)
(-1.07343 -18.348 0)
(-0.795662 -18.8224 0)
(-0.299896 -19.1534 0)
(0.684353 -25.6949 0)
(1.82562 -24.9852 0)
(2.51846 -24.0059 0)
(2.83759 -23.0151 0)
(2.91297 -22.1104 0)
(2.84677 -21.3115 0)
(2.70372 -20.611 0)
(2.52205 -19.9955 0)
(2.32358 -19.4523 0)
(2.12058 -18.9713 0)
(1.91979 -18.5445 0)
(1.72465 -18.1657 0)
(1.53654 -17.8301 0)
(1.35541 -17.5336 0)
(1.18034 -17.2734 0)
(1.00974 -17.0473 0)
(0.841674 -16.8538 0)
(0.673977 -16.6925 0)
(0.504368 -16.5633 0)
(0.330504 -16.467 0)
(0.150031 -16.4051 0)
(-0.0392568 -16.3804 0)
(-0.239091 -16.3967 0)
(-0.450091 -16.46 0)
(-0.670695 -16.5783 0)
(-0.895313 -16.7625 0)
(-1.11105 -17.0267 0)
(-1.29228 -17.3867 0)
(-1.3926 -17.855 0)
(-1.3362 -18.4253 0)
(-1.02424 -19.0339 0)
(-0.395609 -19.4978 0)
(0.890175 -26.4816 0)
(2.30395 -25.4752 0)
(3.05773 -24.2383 0)
(3.34193 -23.0832 0)
(3.3566 -22.0861 0)
(3.23124 -21.2385 0)
(3.03758 -20.514 0)
(2.81386 -19.8879 0)
(2.58023 -19.3416 0)
(2.3473 -18.8615 0)
(2.12052 -18.4377 0)
(1.90243 -18.0628 0)
(1.69373 -17.7311 0)
(1.49387 -17.4382 0)
(1.30141 -17.1808 0)
(1.11435 -16.9565 0)
(0.93035 -16.7638 0)
(0.746884 -16.6019 0)
(0.56131 -16.4709 0)
(0.370902 -16.3716 0)
(0.172816 -16.3053 0)
(-0.0358035 -16.275 0)
(-0.257572 -16.2848 0)
(-0.494265 -16.3414 0)
(-0.745818 -16.454 0)
(-1.00852 -16.6363 0)
(-1.27139 -16.9068 0)
(-1.50948 -17.29 0)
(-1.67183 -17.8134 0)
(-1.66288 -18.4924 0)
(-1.33195 -19.2811 0)
(-0.53187 -19.9578 0)
(1.18755 -27.5199 0)
(2.9473 -26.0229 0)
(3.71446 -24.4501 0)
(3.91365 -23.1118 0)
(3.83532 -22.0245 0)
(3.63285 -21.1347 0)
(3.37903 -20.3922 0)
(3.10822 -19.7603 0)
(2.83678 -19.2143 0)
(2.57257 -18.7375 0)
(2.31916 -18.3185 0)
(2.07794 -17.9489 0)
(1.84881 -17.6223 0)
(1.63055 -17.3338 0)
(1.42121 -17.0798 0)
(1.21828 -16.8576 0)
(1.01897 -16.6657 0)
(0.820394 -16.5033 0)
(0.619533 -16.3703 0)
(0.413287 -16.2675 0)
(0.198298 -16.1963 0)
(-0.0290069 -16.1593 0)
(-0.272273 -16.161 0)
(-0.534685 -16.2084 0)
(-0.818125 -16.3121 0)
(-1.12167 -16.4876 0)
(-1.43792 -16.7583 0)
(-1.7456 -17.1579 0)
(-1.99383 -17.7325 0)
(-2.07006 -18.5318 0)
(-1.75693 -19.5559 0)
(-0.733965 -20.5867 0)
(1.63865 -28.9323 0)
(3.83883 -26.5895 0)
(4.51327 -24.6033 0)
(4.55476 -23.0776 0)
(4.34514 -21.9133 0)
(4.04736 -20.9941 0)
(3.72479 -20.2428 0)
(3.40281 -19.6112 0)
(3.09163 -19.0696 0)
(2.79523 -18.599 0)
(2.51486 -18.1868 0)
(2.25052 -17.8241 0)
(2.00128 -17.5038 0)
(1.76511 -17.2205 0)
(1.53951 -16.9706 0)
(1.3214 -16.7509 0)
(1.1075 -16.56 0)
(0.89456 -16.3971 0)
(0.679182 -16.262 0)
(0.457932 -16.1554 0)
(0.226927 -16.0784 0)
(-0.0181594 -16.0337 0)
(-0.282135 -16.0254 0)
(-0.569806 -16.0612 0)
(-0.885376 -16.1519 0)
(-1.23162 -16.3148 0)
(-1.60657 -16.5773 0)
(-1.99659 -16.9818 0)
(-2.35876 -17.5951 0)
(-2.57459 -18.5146 0)
(-2.35938 -19.8288 0)
(-1.04724 -21.473 0)
(2.35895 -30.9305 0)
(5.1118 -27.067 0)
(5.47042 -24.6415 0)
(5.25865 -22.953 0)
(4.87707 -21.7409 0)
(4.46813 -20.8115 0)
(4.07048 -20.0633 0)
(3.6948 -19.4395 0)
(3.34287 -18.907 0)
(3.01398 -18.4458 0)
(2.70665 -18.0426 0)
(2.41945 -17.6885 0)
(2.15057 -17.3758 0)
(1.89712 -17.0988 0)
(1.65603 -16.8537 0)
(1.42357 -16.6368 0)
(1.19587 -16.4472 0)
(0.969424 -16.2837 0)
(0.740383 -16.1463 0)
(0.505093 -16.0356 0)
(0.259146 -15.9521 0)
(-0.00252663 -15.8987 0)
(-0.286019 -15.8786 0)
(-0.59791 -15.9 0)
(-0.944926 -15.9733 0)
(-1.33437 -16.1169 0)
(-1.77143 -16.3604 0)
(-2.25454 -16.7532 0)
(-2.76023 -17.381 0)
(-3.18691 -18.3985 0)
(-3.23612 -20.019 0)
(-1.55605 -22.7701 0)
(3.57042 -33.8946 0)
(6.98334 -27.1848 0)
(6.57025 -24.4954 0)
(6.00504 -22.7093 0)
(5.4159 -21.4978 0)
(4.88616 -20.5835 0)
(4.41078 -19.8527 0)
(3.98095 -19.2449 0)
(3.58846 -18.7265 0)
(3.22746 -18.278 0)
(2.89352 -17.8859 0)
(2.5839 -17.5424 0)
(2.29613 -17.2387 0)
(2.02616 -16.9688 0)
(1.7705 -16.7295 0)
(1.52465 -16.5156 0)
(1.28404 -16.3275 0)
(1.04503 -16.1635 0)
(0.803236 -16.0235 0)
(0.555004 -15.9087 0)
(0.295374 -15.8179 0)
(0.0186297 -15.755 0)
(-0.282745 -15.7208 0)
(-0.617186 -15.7253 0)
(-0.993834 -15.7767 0)
(-1.42519 -15.8935 0)
(-1.92475 -16.1058 0)
(-2.50685 -16.4654 0)
(-3.18139 -17.0688 0)
(-3.89362 -18.1311 0)
(-4.5452 -19.926 0)
(-2.42279 -24.7544 0)
(5.71385 -38.5362 0)
(9.81139 -26.2974 0)
(7.70819 -24.1236 0)
(6.75746 -22.3218 0)
(5.93996 -21.1804 0)
(5.29069 -20.3096 0)
(4.73978 -19.6113 0)
(4.25788 -19.0279 0)
(3.82631 -18.5285 0)
(3.4343 -18.096 0)
(3.07445 -17.7169 0)
(2.74303 -17.3862 0)
(2.43737 -17.093 0)
(2.15175 -16.831 0)
(1.88264 -16.5986 0)
(1.62455 -16.3877 0)
(1.37191 -16.2015 0)
(1.12145 -16.037 0)
(0.867802 -15.894 0)
(0.607861 -15.7754 0)
(0.335969 -15.6764 0)
(0.0460227 -15.6038 0)
(-0.271136 -15.5531 0)
(-0.625856 -15.5384 0)
(-1.02902 -15.5634 0)
(-1.49892 -15.6457 0)
(-2.05739 -15.814 0)
(-2.73604 -16.1162 0)
(-3.5931 -16.6416 0)
(-4.61551 -17.6803 0)
(-6.54773 -19.0742 0)
(-3.97021 -27.9452 0)
)
;

boundaryField
{
    left
    {
        type            calculated;
        value           nonuniform List<vector> 
16
(
(0 -23.2705 0)
(0 -23.3111 0)
(0 -23.3937 0)
(0 -23.521 0)
(0 -23.6977 0)
(0 -23.9303 0)
(0 -24.2288 0)
(0 -24.6071 0)
(0 -25.0856 0)
(0 -25.6949 0)
(0 -26.4816 0)
(0 -27.5199 0)
(0 -28.9323 0)
(0 -30.9305 0)
(0 -33.8946 0)
(0 -38.5362 0)
)
;
    }
    right
    {
        type            calculated;
        value           nonuniform List<vector> 
16
(
(0 -18.2077 0)
(0 -18.2272 0)
(0 -18.2672 0)
(0 -18.3295 0)
(0 -18.4173 0)
(0 -18.5352 0)
(0 -18.69 0)
(0 -18.8913 0)
(0 -19.1534 0)
(0 -19.4978 0)
(0 -19.9578 0)
(0 -20.5867 0)
(0 -21.473 0)
(0 -22.7701 0)
(0 -24.7544 0)
(0 -27.9452 0)
)
;
    }
    interface
    {
        type            calculated;
        value           nonuniform List<vector> 
32
(
(5.71385 -41.3929 0)
(9.81139 -25.4891 0)
(7.70819 -23.8799 0)
(6.75746 -22.0896 0)
(5.93996 -21.0031 0)
(5.29069 -20.1613 0)
(4.73978 -19.483 0)
(4.25788 -18.9138 0)
(3.82631 -18.4252 0)
(3.4343 -18.0015 0)
(3.07445 -17.6294 0)
(2.74303 -17.3056 0)
(2.43737 -17.0181 0)
(2.15175 -16.7602 0)
(1.88264 -16.5317 0)
(1.62455 -16.3221 0)
(1.37191 -16.137 0)
(1.12145 -15.9723 0)
(0.867802 -15.8277 0)
(0.607861 -15.7073 0)
(0.335969 -15.6039 0)
(0.0460227 -15.5265 0)
(-0.271136 -15.4668 0)
(-0.625856 -15.4422 0)
(-1.02902 -15.4528 0)
(-1.49892 -15.5161 0)
(-2.05739 -15.6591 0)
(-2.73604 -15.9263 0)
(-3.5931 -16.3974 0)
(-4.61551 -17.4078 0)
(-6.54773 -18.3751 0)
(-3.97021 -29.9275 0)
)
;
    }
    bottom
    {
        type            calculated;
        value           nonuniform List<vector> 
32
(
(0.0201755 -23.2604 0)
(0.0579113 -23.099 0)
(0.088791 -22.7971 0)
(0.110733 -22.3887 0)
(0.12377 -21.9113 0)
(0.129256 -21.3985 0)
(0.129001 -20.8772 0)
(0.124755 -20.3665 0)
(0.117938 -19.8792 0)
(0.1096 -19.423 0)
(0.100462 -19.0024 0)
(0.0909853 -18.6193 0)
(0.0814438 -18.2745 0)
(0.0719776 -17.9678 0)
(0.0626359 -17.6987 0)
(0.0534071 -17.4667 0)
(0.0442412 -17.2714 0)
(0.0350661 -17.1128 0)
(0.025802 -16.9909 0)
(0.0163751 -16.9063 0)
(0.00673522 -16.8599 0)
(-0.00312036 -16.8525 0)
(-0.0131127 -16.8849 0)
(-0.0230338 -16.9574 0)
(-0.0324871 -17.0691 0)
(-0.0408222 -17.2173 0)
(-0.0470891 -17.3957 0)
(-0.0500583 -17.594 0)
(-0.0483857 -17.7962 0)
(-0.0410014 -17.9811 0)
(-0.027722 -18.1242 0)
(-0.00983152 -18.2028 0)
)
;
    }
    defaultFaces
    {
        type            empty;
    }
}


// ************************************************************************* //
