/*--------------------------------*- C++ -*----------------------------------*\
| =========                 |                                                 |
| \\      /  F ield         | OpenFOAM: The Open Source CFD Toolbox           |
|  \\    /   O peration     | Version:  2112                                  |
|   \\  /    A nd           | Website:  www.openfoam.com                      |
|    \\/     M anipulation  |                                                 |
\*---------------------------------------------------------------------------*/
FoamFile
{
    version     2.0;
    format      ascii;
    arch        "LSB;label=32;scalar=64";
    class       volScalarField;
    location    "4";
    object      gradTy;
}
// * * * * * * * * * * * * * * * * * * * * * * * * * * * * * * * * * * * * * //

dimensions      [0 -1 0 1 0 0 0];

internalField   nonuniform List<scalar> 
512
(
-23.2705
-23.1078
-22.8038
-22.393
-21.9135
-21.399
-20.8765
-20.365
-19.8772
-19.4208
-19
-18.6169
-18.2721
-17.9654
-17.6963
-17.4643
-17.2691
-17.1104
-16.9885
-16.9039
-16.8574
-16.8499
-16.8823
-16.9548
-17.0668
-17.2153
-17.3944
-17.5936
-17.7972
-17.9836
-18.1281
-18.2077
-23.3111
-23.1431
-22.8304
-22.4101
-21.9221
-21.401
-20.8737
-20.359
-19.8692
-19.4117
-18.9904
-18.6071
-18.2623
-17.9558
-17.6868
-17.4549
-17.2597
-17.1009
-16.9789
-16.8941
-16.8473
-16.8396
-16.8719
-16.9446
-17.0573
-17.2073
-17.389
-17.5922
-17.8011
-17.9937
-18.144
-18.2272
-23.3937
-23.2144
-22.8838
-22.4441
-21.9389
-21.4044
-20.8676
-20.3466
-19.853
-19.3934
-18.9712
-18.5876
-18.2429
-17.9365
-17.6678
-17.4361
-17.2409
-17.082
-16.9597
-16.8744
-16.8271
-16.819
-16.851
-16.9241
-17.0381
-17.191
-17.3778
-17.589
-17.8087
-18.014
-18.1764
-18.2672
-23.521
-23.3236
-22.9644
-22.4945
-21.9629
-21.4083
-20.8574
-20.3273
-19.8283
-19.3657
-18.9421
-18.5582
-18.2136
-17.9076
-17.6393
-17.4079
-17.2127
-17.0537
-16.9309
-16.845
-16.7969
-16.788
-16.8196
-16.893
-17.0088
-17.1658
-17.3602
-17.5833
-17.8195
-18.0447
-18.2263
-18.3295
-23.6977
-23.4732
-23.0726
-22.5602
-21.9927
-21.4112
-20.8419
-20.3001
-19.7942
-19.3281
-18.903
-18.5187
-18.1745
-17.8692
-17.6015
-17.3704
-17.1754
-17.016
-16.8926
-16.8058
-16.7566
-16.7466
-16.7774
-16.8511
-16.9689
-17.131
-17.3351
-17.574
-17.8329
-18.086
-18.2956
-18.4173
-23.9303
-23.6669
-23.2088
-22.6395
-22.0259
-21.4109
-20.8194
-20.2639
-19.7501
-19.2801
-18.8535
-18.4692
-18.1256
-17.8211
-17.5542
-17.3237
-17.1288
-16.9692
-16.845
-16.757
-16.7063
-16.6946
-16.7243
-16.7978
-16.9176
-17.0855
-17.3011
-17.5595
-17.8474
-18.1379
-18.3866
-18.5352
-24.2288
-23.9092
-23.3726
-22.73
-22.0593
-21.4048
-20.7878
-20.2171
-19.6951
-19.2211
-18.7932
-18.4093
-18.0667
-17.7635
-17.4977
-17.2679
-17.0733
-16.9133
-16.7882
-16.6986
-16.6459
-16.6321
-16.6599
-16.7327
-16.854
-17.0277
-17.256
-17.5373
-17.8609
-18.2
-18.5022
-18.69
-24.6071
-24.2057
-23.5629
-22.8273
-22.0887
-21.3892
-20.7446
-20.1581
-19.6279
-19.1504
-18.7219
-18.3388
-17.9979
-17.6964
-17.432
-17.2032
-17.0088
-16.8484
-16.7221
-16.6307
-16.5756
-16.559
-16.5841
-16.6551
-16.7771
-16.956
-17.1975
-17.5041
-17.8703
-18.271
-18.6462
-18.8913
-25.0856
-24.5626
-23.7763
-22.9255
-22.1082
-21.3598
-20.6867
-20.0849
-19.5474
-19.0674
-18.6392
-18.2577
-17.919
-17.6197
-17.3572
-17.1296
-16.9356
-16.7748
-16.6471
-16.5535
-16.4953
-16.4751
-16.4964
-16.5644
-16.6856
-16.8684
-17.1222
-17.4558
-17.8707
-18.348
-18.8224
-19.1534
-25.6949
-24.9852
-24.0059
-23.0151
-22.1104
-21.3115
-20.611
-19.9955
-19.4523
-18.9713
-18.5445
-18.1657
-17.8301
-17.5336
-17.2734
-17.0473
-16.8538
-16.6925
-16.5633
-16.467
-16.4051
-16.3804
-16.3967
-16.46
-16.5783
-16.7625
-17.0267
-17.3867
-17.855
-18.4253
-19.0339
-19.4978
-26.4816
-25.4752
-24.2383
-23.0832
-22.0861
-21.2385
-20.514
-19.8879
-19.3416
-18.8615
-18.4377
-18.0628
-17.7311
-17.4382
-17.1808
-16.9565
-16.7638
-16.6019
-16.4709
-16.3716
-16.3053
-16.275
-16.2848
-16.3414
-16.454
-16.6363
-16.9068
-17.29
-17.8134
-18.4924
-19.2811
-19.9578
-27.5199
-26.0229
-24.4501
-23.1118
-22.0245
-21.1347
-20.3922
-19.7603
-19.2143
-18.7375
-18.3185
-17.9489
-17.6223
-17.3338
-17.0798
-16.8576
-16.6657
-16.5033
-16.3703
-16.2675
-16.1963
-16.1593
-16.161
-16.2084
-16.3121
-16.4876
-16.7583
-17.1579
-17.7325
-18.5318
-19.5559
-20.5867
-28.9323
-26.5895
-24.6033
-23.0776
-21.9133
-20.9941
-20.2428
-19.6112
-19.0696
-18.599
-18.1868
-17.8241
-17.5038
-17.2205
-16.9706
-16.7509
-16.56
-16.3971
-16.262
-16.1554
-16.0784
-16.0337
-16.0254
-16.0612
-16.1519
-16.3148
-16.5773
-16.9818
-17.5951
-18.5146
-19.8288
-21.473
-30.9305
-27.067
-24.6415
-22.953
-21.7409
-20.8115
-20.0633
-19.4395
-18.907
-18.4458
-18.0426
-17.6885
-17.3758
-17.0988
-16.8537
-16.6368
-16.4472
-16.2837
-16.1463
-16.0356
-15.9521
-15.8987
-15.8786
-15.9
-15.9733
-16.1169
-16.3604
-16.7532
-17.381
-18.3985
-20.019
-22.7701
-33.8946
-27.1848
-24.4954
-22.7093
-21.4978
-20.5835
-19.8527
-19.2449
-18.7265
-18.278
-17.8859
-17.5424
-17.2387
-16.9688
-16.7295
-16.5156
-16.3275
-16.1635
-16.0235
-15.9087
-15.8179
-15.755
-15.7208
-15.7253
-15.7767
-15.8935
-16.1058
-16.4654
-17.0688
-18.1311
-19.926
-24.7544
-38.5362
-26.2974
-24.1236
-22.3218
-21.1804
-20.3096
-19.6113
-19.0279
-18.5285
-18.096
-17.7169
-17.3862
-17.093
-16.831
-16.5986
-16.3877
-16.2015
-16.037
-15.894
-15.7754
-15.6764
-15.6038
-15.5531
-15.5384
-15.5634
-15.6457
-15.814
-16.1162
-16.6416
-17.6803
-19.0742
-27.9452
)
;

boundaryField
{
    left
    {
        type            calculated;
        value           nonuniform List<scalar> 
16
(
-23.2705
-23.3111
-23.3937
-23.521
-23.6977
-23.9303
-24.2288
-24.6071
-25.0856
-25.6949
-26.4816
-27.5199
-28.9323
-30.9305
-33.8946
-38.5362
)
;
    }
    right
    {
        type            calculated;
        value           nonuniform List<scalar> 
16
(
-18.2077
-18.2272
-18.2672
-18.3295
-18.4173
-18.5352
-18.69
-18.8913
-19.1534
-19.4978
-19.9578
-20.5867
-21.473
-22.7701
-24.7544
-27.9452
)
;
    }
    interface
    {
        type            calculated;
        value           nonuniform List<scalar> 
32
(
-41.3929
-25.4891
-23.8799
-22.0896
-21.0031
-20.1613
-19.483
-18.9138
-18.4252
-18.0015
-17.6294
-17.3056
-17.0181
-16.7602
-16.5317
-16.3221
-16.137
-15.9723
-15.8277
-15.7073
-15.6039
-15.5265
-15.4668
-15.4422
-15.4528
-15.5161
-15.6591
-15.9263
-16.3974
-17.4078
-18.3751
-29.9275
)
;
    }
    bottom
    {
        type            calculated;
        value           nonuniform List<scalar> 
32
(
-23.2604
-23.099
-22.7971
-22.3887
-21.9113
-21.3985
-20.8772
-20.3665
-19.8792
-19.423
-19.0024
-18.6193
-18.2745
-17.9678
-17.6987
-17.4667
-17.2714
-17.1128
-16.9909
-16.9063
-16.8599
-16.8525
-16.8849
-16.9574
-17.0691
-17.2173
-17.3957
-17.594
-17.7962
-17.9811
-18.1242
-18.2028
)
;
    }
    defaultFaces
    {
        type            empty;
    }
}


// ************************************************************************* //
