/*--------------------------------*- C++ -*----------------------------------*\
| =========                 |                                                 |
| \\      /  F ield         | OpenFOAM: The Open Source CFD Toolbox           |
|  \\    /   O peration     | Version:  2112                                  |
|   \\  /    A nd           | Website:  www.openfoam.com                      |
|    \\/     M anipulation  |                                                 |
\*---------------------------------------------------------------------------*/
FoamFile
{
    version     2.0;
    format      ascii;
    arch        "LSB;label=32;scalar=64";
    class       volScalarField;
    location    "4";
    object      gradTx;
}
// * * * * * * * * * * * * * * * * * * * * * * * * * * * * * * * * * * * * * //

dimensions      [0 -1 0 1 0 0 0];

internalField   nonuniform List<scalar> 
512
(
0.0201755
0.0579113
0.088791
0.110733
0.12377
0.129256
0.129001
0.124755
0.117938
0.1096
0.100462
0.0909853
0.0814438
0.0719776
0.0626359
0.0534071
0.0442412
0.0350661
0.025802
0.0163751
0.00673522
-0.00312036
-0.0131127
-0.0230338
-0.0324871
-0.0408222
-0.0470891
-0.0500583
-0.0483857
-0.0410014
-0.027722
-0.00983152
0.0611805
0.175451
0.268608
0.334425
0.373201
0.389206
0.388006
0.374911
0.354197
0.329004
0.301474
0.272976
0.244317
0.215906
0.187884
0.16021
0.13273
0.105224
0.0774503
0.0491819
0.0202628
-0.00932396
-0.0393532
-0.0692161
-0.0977388
-0.122982
-0.142091
-0.151335
-0.146586
-0.124479
-0.0843204
-0.0299385
0.104207
0.29828
0.455263
0.564883
0.628336
0.653462
0.649994
0.626983
0.591587
0.549004
0.50274
0.45502
0.407141
0.35975
0.313057
0.266976
0.221237
0.175461
0.129233
0.0821617
0.0339667
-0.0154084
-0.0656275
-0.115727
-0.163805
-0.206672
-0.239556
-0.256111
-0.249128
-0.212476
-0.144478
-0.051419
0.150811
0.430396
0.653766
0.806886
0.893071
0.924876
0.916888
0.882167
0.830793
0.769943
0.70439
0.637125
0.569863
0.503441
0.438098
0.373678
0.309773
0.245831
0.181244
0.115439
0.047981
-0.0212676
-0.0919193
-0.162732
-0.231165
-0.292852
-0.341103
-0.366773
-0.359092
-0.308324
-0.210906
-0.0753383
0.202909
0.576584
0.869845
1.06563
1.17143
1.20625
1.19049
1.14154
1.07239
0.992083
0.906496
0.819257
0.732404
0.64689
0.562936
0.480278
0.398344
0.316386
0.233584
0.149152
0.0624638
-0.0267571
-0.118154
-0.210318
-0.300202
-0.382385
-0.448294
-0.485776
-0.479835
-0.415859
-0.286874
-0.103018
0.263016
0.742898
1.11031
1.34687
1.46756
1.50029
1.47242
1.40599
1.31682
1.21558
1.10905
1.00133
0.894646
0.789985
0.687486
0.586731
0.486955
0.387184
0.286362
0.183457
0.0776055
-0.0316792
-0.144176
-0.258456
-0.371151
-0.475979
-0.562591
-0.615642
-0.615092
-0.539677
-0.376557
-0.136209
0.334624
0.937352
1.38352
1.65707
1.78572
1.8095
1.76402
1.67615
1.5643
1.44043
1.31194
1.18318
1.05642
0.932581
0.81164
0.692981
0.575602
0.458282
0.339695
0.218531
0.0936355
-0.0357709
-0.169729
-0.306971
-0.444054
-0.57412
-0.685279
-0.758917
-0.769069
-0.685455
-0.485532
-0.177365
0.422813
1.17097
1.69992
2.00351
2.13014
2.13605
2.06626
1.95236
1.81484
1.66648
1.51495
1.36458
1.21752
1.0745
0.935271
0.798956
0.66428
0.529739
0.393712
0.254576
0.110828
-0.0386931
-0.194434
-0.355504
-0.518694
-0.676979
-0.817347
-0.918075
-0.946482
-0.860344
-0.621538
-0.230086
0.535307
1.45942
2.07269
2.39419
2.50479
2.48155
2.37958
2.23451
2.06813
1.89339
1.71773
1.54521
1.37767
1.21553
1.05823
0.904575
0.752977
0.601616
0.448553
0.291817
0.129504
-0.0400241
-0.217775
-0.403482
-0.594543
-0.784308
-0.959324
-1.09532
-1.15252
-1.07343
-0.795662
-0.299896
0.684353
1.82562
2.51846
2.83759
2.91297
2.84677
2.70372
2.52205
2.32358
2.12058
1.91979
1.72465
1.53654
1.35541
1.18034
1.00974
0.841674
0.673977
0.504368
0.330504
0.150031
-0.0392568
-0.239091
-0.450091
-0.670695
-0.895313
-1.11105
-1.29228
-1.3926
-1.3362
-1.02424
-0.395609
0.890175
2.30395
3.05773
3.34193
3.3566
3.23124
3.03758
2.81386
2.58023
2.3473
2.12052
1.90243
1.69373
1.49387
1.30141
1.11435
0.93035
0.746884
0.56131
0.370902
0.172816
-0.0358035
-0.257572
-0.494265
-0.745818
-1.00852
-1.27139
-1.50948
-1.67183
-1.66288
-1.33195
-0.53187
1.18755
2.9473
3.71446
3.91365
3.83532
3.63285
3.37903
3.10822
2.83678
2.57257
2.31916
2.07794
1.84881
1.63055
1.42121
1.21828
1.01897
0.820394
0.619533
0.413287
0.198298
-0.0290069
-0.272273
-0.534685
-0.818125
-1.12167
-1.43792
-1.7456
-1.99383
-2.07006
-1.75693
-0.733965
1.63865
3.83883
4.51327
4.55476
4.34514
4.04736
3.72479
3.40281
3.09163
2.79523
2.51486
2.25052
2.00128
1.76511
1.53951
1.3214
1.1075
0.89456
0.679182
0.457932
0.226927
-0.0181594
-0.282135
-0.569806
-0.885376
-1.23162
-1.60657
-1.99659
-2.35876
-2.57459
-2.35938
-1.04724
2.35895
5.1118
5.47042
5.25865
4.87707
4.46813
4.07048
3.6948
3.34287
3.01398
2.70665
2.41945
2.15057
1.89712
1.65603
1.42357
1.19587
0.969424
0.740383
0.505093
0.259146
-0.00252663
-0.286019
-0.59791
-0.944926
-1.33437
-1.77143
-2.25454
-2.76023
-3.18691
-3.23612
-1.55605
3.57042
6.98334
6.57025
6.00504
5.4159
4.88616
4.41078
3.98095
3.58846
3.22746
2.89352
2.5839
2.29613
2.02616
1.7705
1.52465
1.28404
1.04503
0.803236
0.555004
0.295374
0.0186297
-0.282745
-0.617186
-0.993834
-1.42519
-1.92475
-2.50685
-3.18139
-3.89362
-4.5452
-2.42279
5.71385
9.81139
7.70819
6.75746
5.93996
5.29069
4.73978
4.25788
3.82631
3.4343
3.07445
2.74303
2.43737
2.15175
1.88264
1.62455
1.37191
1.12145
0.867802
0.607861
0.335969
0.0460227
-0.271136
-0.625856
-1.02902
-1.49892
-2.05739
-2.73604
-3.5931
-4.61551
-6.54773
-3.97021
)
;

boundaryField
{
    left
    {
        type            calculated;
        value           uniform 0;
    }
    right
    {
        type            calculated;
        value           uniform 0;
    }
    interface
    {
        type            calculated;
        value           nonuniform List<scalar> 
32
(
5.71385
9.81139
7.70819
6.75746
5.93996
5.29069
4.73978
4.25788
3.82631
3.4343
3.07445
2.74303
2.43737
2.15175
1.88264
1.62455
1.37191
1.12145
0.867802
0.607861
0.335969
0.0460227
-0.271136
-0.625856
-1.02902
-1.49892
-2.05739
-2.73604
-3.5931
-4.61551
-6.54773
-3.97021
)
;
    }
    bottom
    {
        type            calculated;
        value           nonuniform List<scalar> 
32
(
0.0201755
0.0579113
0.088791
0.110733
0.12377
0.129256
0.129001
0.124755
0.117938
0.1096
0.100462
0.0909853
0.0814438
0.0719776
0.0626359
0.0534071
0.0442412
0.0350661
0.025802
0.0163751
0.00673522
-0.00312036
-0.0131127
-0.0230338
-0.0324871
-0.0408222
-0.0470891
-0.0500583
-0.0483857
-0.0410014
-0.027722
-0.00983152
)
;
    }
    defaultFaces
    {
        type            empty;
    }
}


// ************************************************************************* //
