/*--------------------------------*- C++ -*----------------------------------*\
| =========                 |                                                 |
| \\      /  F ield         | OpenFOAM: The Open Source CFD Toolbox           |
|  \\    /   O peration     | Version:  2112                                  |
|   \\  /    A nd           | Website:  www.openfoam.com                      |
|    \\/     M anipulation  |                                                 |
\*---------------------------------------------------------------------------*/
FoamFile
{
    version     2.0;
    format      ascii;
    arch        "LSB;label=32;scalar=64";
    class       volScalarField;
    location    "4";
    object      T;
}
// * * * * * * * * * * * * * * * * * * * * * * * * * * * * * * * * * * * * * //

dimensions      [0 0 0 1 0 0 0];

internalField   nonuniform List<scalar> 
512
(
309.818
309.82
309.822
309.825
309.829
309.833
309.837
309.841
309.845
309.848
309.852
309.855
309.857
309.86
309.862
309.864
309.865
309.866
309.867
309.868
309.868
309.868
309.868
309.868
309.867
309.865
309.864
309.863
309.861
309.86
309.858
309.858
309.455
309.458
309.465
309.475
309.486
309.498
309.511
309.523
309.534
309.545
309.555
309.564
309.572
309.579
309.585
309.591
309.595
309.599
309.602
309.604
309.605
309.605
309.604
309.603
309.6
309.597
309.592
309.588
309.583
309.578
309.575
309.573
309.09
309.096
309.108
309.125
309.144
309.164
309.185
309.205
309.224
309.242
309.258
309.273
309.287
309.299
309.309
309.318
309.326
309.332
309.337
309.34
309.342
309.342
309.341
309.338
309.334
309.328
309.321
309.313
309.305
309.297
309.291
309.288
308.723
308.733
308.75
308.774
308.801
308.83
308.859
308.887
308.914
308.939
308.962
308.983
309.002
309.018
309.033
309.046
309.056
309.065
309.072
309.076
309.079
309.079
309.078
309.074
309.068
309.059
309.049
309.038
309.026
309.016
309.007
309.002
308.355
308.367
308.391
308.422
308.457
308.495
308.533
308.569
308.604
308.636
308.666
308.693
308.717
308.739
308.758
308.774
308.788
308.799
308.808
308.814
308.817
308.817
308.815
308.81
308.802
308.791
308.778
308.763
308.748
308.733
308.722
308.715
307.983
307.999
308.029
308.069
308.114
308.16
308.207
308.252
308.295
308.335
308.371
308.404
308.434
308.46
308.483
308.503
308.52
308.533
308.544
308.551
308.555
308.556
308.553
308.547
308.537
308.524
308.508
308.489
308.469
308.45
308.435
308.427
307.607
307.628
307.666
307.714
307.769
307.826
307.882
307.936
307.987
308.034
308.077
308.116
308.151
308.182
308.209
308.233
308.253
308.269
308.281
308.29
308.295
308.296
308.293
308.285
308.273
308.257
308.237
308.215
308.19
308.166
308.147
308.136
307.226
307.252
307.299
307.358
307.424
307.492
307.558
307.621
307.68
307.734
307.784
307.829
307.869
307.905
307.936
307.963
307.986
308.005
308.019
308.029
308.035
308.036
308.033
308.024
308.011
307.992
307.968
307.941
307.911
307.882
307.857
307.843
306.838
306.871
306.929
307.001
307.079
307.158
307.234
307.306
307.374
307.435
307.492
307.543
307.588
307.629
307.664
307.695
307.721
307.742
307.759
307.77
307.777
307.778
307.774
307.765
307.749
307.727
307.7
307.668
307.632
307.595
307.564
307.546
306.442
306.485
306.556
306.642
306.733
306.824
306.911
306.993
307.069
307.138
307.201
307.258
307.309
307.354
307.394
307.428
307.457
307.481
307.499
307.512
307.52
307.522
307.517
307.507
307.489
307.465
307.433
307.395
307.352
307.308
307.269
307.244
306.035
306.091
306.179
306.282
306.388
306.492
306.59
306.681
306.766
306.843
306.912
306.975
307.031
307.081
307.125
307.162
307.194
307.22
307.241
307.256
307.264
307.266
307.262
307.25
307.231
307.204
307.168
307.124
307.074
307.02
306.97
306.936
305.614
305.689
305.798
305.921
306.043
306.16
306.27
306.372
306.464
306.549
306.625
306.694
306.755
306.809
306.857
306.898
306.933
306.962
306.984
307.001
307.01
307.013
307.008
306.996
306.975
306.945
306.905
306.855
306.796
306.73
306.666
306.62
305.175
305.277
305.415
305.56
305.7
305.831
305.953
306.064
306.165
306.257
306.34
306.414
306.481
306.539
306.591
306.636
306.673
306.705
306.729
306.747
306.758
306.761
306.757
306.744
306.721
306.688
306.644
306.588
306.519
306.441
306.359
306.293
304.71
304.858
305.03
305.199
305.358
305.504
305.638
305.759
305.868
305.968
306.057
306.137
306.208
306.271
306.327
306.375
306.416
306.449
306.476
306.496
306.508
306.512
306.507
306.494
306.47
306.435
306.387
306.324
306.246
306.152
306.047
305.949
304.208
304.432
304.645
304.842
305.02
305.181
305.326
305.456
305.574
305.681
305.776
305.861
305.938
306.005
306.064
306.116
306.159
306.196
306.225
306.246
306.259
306.264
306.261
306.247
306.222
306.185
306.133
306.064
305.976
305.866
305.733
305.581
303.651
304.008
304.264
304.49
304.686
304.861
305.017
305.157
305.283
305.396
305.498
305.589
305.669
305.741
305.804
305.858
305.905
305.944
305.975
305.998
306.013
306.019
306.016
306.002
305.977
305.938
305.883
305.81
305.712
305.585
305.424
305.176
)
;

boundaryField
{
    left
    {
        type            zeroGradient;
    }
    right
    {
        type            zeroGradient;
    }
    interface
    {
        type            fixedValue;
        value           nonuniform List<scalar> 
32
(
303.328
303.809
304.078
304.317
304.522
304.704
304.865
305.01
305.139
305.256
305.36
305.453
305.536
305.61
305.675
305.731
305.779
305.819
305.852
305.876
305.891
305.898
305.895
305.882
305.856
305.817
305.761
305.685
305.584
305.449
305.28
304.942
)
;
    }
    bottom
    {
        type            fixedValue;
        value           uniform 310;
    }
    defaultFaces
    {
        type            empty;
    }
}


// ************************************************************************* //
