/*--------------------------------*- C++ -*----------------------------------*\
| =========                 |                                                 |
| \\      /  F ield         | OpenFOAM: The Open Source CFD Toolbox           |
|  \\    /   O peration     | Version:  2112                                  |
|   \\  /    A nd           | Website:  www.openfoam.com                      |
|    \\/     M anipulation  |                                                 |
\*---------------------------------------------------------------------------*/
FoamFile
{
    version     2.0;
    format      ascii;
    arch        "LSB;label=32;scalar=64";
    class       surfaceScalarField;
    location    "0.6";
    object      phi;
}
// * * * * * * * * * * * * * * * * * * * * * * * * * * * * * * * * * * * * * //

dimensions      [0 3 -1 0 0 0 0];

oriented        oriented;

internalField   nonuniform List<scalar> 
3280
(
0.00030251178591
0.000917000418864
0.000201875179977
0.000100636602345
0.000190713127541
1.11620475435e-05
0.000183457486809
7.25564521726e-06
0.000184322989226
-8.65502418783e-07
0.000183689101595
6.33885651444e-07
0.000184149560546
-4.6045811668e-07
0.00018407504605
7.45150616102e-08
0.000184181527648
-1.06482129237e-07
0.000184160045292
2.14823088647e-08
0.000184179145748
-1.9100214578e-08
0.000184172195114
6.95058346601e-09
0.000184175523304
-3.3282675849e-09
0.000184173706625
1.81672597968e-09
0.000184174378149
-6.71499006894e-10
0.000184173974539
4.03584987811e-10
0.000184174130755
-1.56215006509e-10
0.00018417404723
8.35328634605e-11
0.000184174084512
-3.72884692081e-11
0.000184174067098
1.7410804807e-11
0.000184174075657
-8.55953891733e-12
0.000184174071868
3.78639176715e-12
0.000184174073757
-1.88712331629e-12
0.000184174072908
8.48250167944e-13
0.000184174073318
-4.12489603451e-13
0.000184174073126
1.93786177402e-13
0.000184174073215
-8.94315325411e-14
0.000184174073173
3.99717542158e-14
0.000184174073194
-2.06617860358e-14
0.000184174073184
1.16894080969e-14
0.000184174073188
-2.87090928249e-15
0.000184174073187
-5.14289651807e-16
0.000184174073188
9.30215413975e-16
0.000184174073186
2.25532599907e-15
0.000184174073187
-1.93390224433e-15
0.000184174073187
6.85621847771e-16
0.000184174073187
2.27814630092e-15
0.000184174073187
1.83543033352e-15
0.000184174073186
-9.04162729696e-16
0.000184174073185
-3.49467190953e-15
-6.64746326784e-16
0.000680514169325
0.00145599844802
0.000528406826489
0.000252743948803
0.000487299792709
5.22690746858e-05
0.000473691255719
2.08641846417e-05
0.000472821048195
4.70685066415e-09
0.000472163308843
1.2916231412e-06
0.000472745710567
-1.042859745e-06
0.000472786177411
3.404901693e-08
0.000472942927801
-2.63232830721e-07
0.000472942668231
2.174166402e-08
0.000472967592505
-4.40242823062e-08
0.00047296205899
1.24841334276e-08
0.000472965286152
-6.55551458654e-09
0.000472963286187
3.81670454067e-09
0.000472963805746
-1.19102434764e-09
0.000472963343396
8.65920067939e-10
0.000472963473191
-2.86023070598e-10
0.000472963384073
1.72650961427e-10
0.000472963419595
-7.28149026863e-11
0.000472963402635
3.43696023595e-11
0.00047296341137
-1.72967575236e-11
0.00047296340782
7.33401465406e-12
0.00047296340976
-3.82504711071e-12
0.000472963408952
1.65733485066e-12
0.000472963409362
-8.19185137629e-13
0.000472963409173
3.83866454827e-13
0.00047296340926
-1.75608080257e-13
0.00047296340922
8.42020858116e-14
0.000472963409241
-4.05732581195e-14
0.000472963409231
2.15002536803e-14
0.000472963409235
-7.63960932725e-15
0.000472963409234
2.92751530389e-15
0.000472963409235
-1.49115134035e-15
0.000472963409232
7.3301687444e-16
0.000472963409234
-1.55652251476e-15
0.000472963409233
3.34617614305e-15
0.000472963409233
3.22204161586e-16
0.000472963409233
-1.07139215714e-15
0.000472963409232
-4.33383528619e-15
0.000472963409229
-4.55127185951e-15
-2.22825097358e-15
0.00092670184455
0.00174880879729
0.000779201507737
0.000400244294398
0.000718735359092
0.000112735216661
0.000702147321466
3.74522223822e-05
0.000699004165939
3.14786513574e-06
0.000698516651357
1.77913640998e-06
0.000698982592931
-1.50880187859e-06
0.000699162841013
-1.46198265189e-07
0.000699320653088
-4.21044935657e-07
0.000699351625329
-9.23089620749e-09
0.000699374187801
-6.65866352076e-08
0.000699373435694
1.32363393903e-08
0.000699375160649
-8.28054214238e-09
0.000699373828984
5.14835804134e-09
0.000699373902274
-1.26427762577e-09
0.000699373563842
1.20434275205e-09
0.000699373596176
-3.18378486187e-10
0.000699373538534
2.30299752746e-10
0.000699373555205
-8.9485274458e-11
0.00069937354643
4.31417628363e-11
0.000699373551449
-2.2318546987e-11
0.000699373549835
8.94505294141e-12
0.000699373550975
-4.96672245875e-12
0.000699373550591
2.04007021521e-12
0.000699373550819
-1.04602543037e-12
0.00069937355072
4.85442626937e-13
0.000699373550766
-2.23172968357e-13
0.000699373550746
1.08508075339e-13
0.000699373550757
-5.09656407444e-14
0.000699373550751
2.67520113477e-14
0.000699373550753
-8.55142986186e-15
0.000699373550753
3.62686638878e-15
0.000699373550753
-1.76397970372e-15
0.00069937355075
2.67029376345e-15
0.000699373550752
3.33693940461e-15
0.000699373550751
1.6897204675e-15
0.000699373550751
-1.56901185218e-15
0.00069937355075
-5.95043858912e-16
0.000699373550749
-1.94660483495e-15
0.000699373550747
-7.08744582383e-15
-7.96156265742e-15
0.00109320493401
0.00187511605173
0.000965358026946
0.000528091214599
0.000899455656686
0.000178637580903
0.000881195488859
5.57123881289e-05
0.000876532790148
7.81056722875e-06
0.00087603171454
2.28021142137e-06
0.000876389013055
-1.86610149403e-06
0.000876642067452
-3.99251981336e-07
0.000876799263853
-5.78241100339e-07
0.000876849532551
-5.94999465399e-08
0.000876871286451
-8.83405160678e-08
0.000876873717539
1.08054021264e-08
0.000876874673528
-9.23658205285e-09
0.000876873784504
6.03734069417e-09
0.000876873600309
-1.08004519763e-09
0.000876873336668
1.4679911741e-09
0.000876873309535
-2.91262244494e-10
0.00087687326994
2.69888831844e-10
0.000876873274914
-9.4455108713e-11
0.00087687327089
4.71637638707e-11
0.000876873273634
-2.50645801296e-11
0.000876873273172
9.40770847762e-12
0.000876873273832
-5.63065368872e-12
0.000876873273704
2.16771493827e-12
0.000876873273824
-1.16751361488e-12
0.000876873273779
5.24909784652e-13
0.000876873273801
-2.41012925345e-13
0.000876873273792
1.23605155406e-13
0.000876873273799
-4.86475900468e-14
0.000876873273795
2.93927843061e-14
0.000876873273796
-1.28927283644e-14
0.000876873273796
3.46988759674e-15
0.000876873273796
-1.46633441197e-15
0.000876873273793
1.39275336795e-16
0.000876873273795
2.31627646603e-15
0.000876873273794
1.40579315322e-15
0.000876873273793
1.13202871221e-16
0.000876873273793
-1.59588952911e-15
0.000876873273791
-6.0313509918e-15
0.000876873273789
-3.76106394688e-15
-9.49985576474e-15
0.00120381208993
0.0018908161464
0.00110245758897
0.000629445731565
0.00103977727341
0.000241317891633
0.00102132931441
7.41603433555e-05
0.00101582899768
1.33108874196e-05
0.00101525178286
2.85742638594e-06
0.00101550432049
-2.11864052982e-06
0.001015784728
-6.79659017889e-07
0.00101593598767
-7.2950033003e-07
0.0010159967382
-1.20250814505e-07
0.00101601786595
-1.09468346398e-07
0.00101602237346
6.29805933322e-09
0.00101602294848
-9.81161628028e-09
0.0010160223818
6.60396344339e-09
0.00101602205757
-7.55788995731e-10
0.00101602184639
1.67918511477e-09
0.00101602178381
-2.28698651335e-10
0.00101602175543
2.98262287364e-10
0.00101602175298
-9.1998417468e-11
0.00101602175178
4.8371689137e-11
0.00101602175305
-2.63418860155e-11
0.00101602175328
9.17260529218e-12
0.00101602175364
-5.98774836961e-12
0.00101602175367
2.13978095342e-12
0.00101602175372
-1.21896199318e-12
0.00101602175371
5.29411093861e-13
0.00101602175371
-2.44874778416e-13
0.00101602175371
1.30604076018e-13
0.00101602175372
-4.81926072246e-14
0.00101602175371
2.83129730626e-14
0.00101602175371
-1.5336674649e-14
0.00101602175371
2.49947758789e-15
0.00101602175371
-1.55556121332e-16
0.00101602175371
-1.31492588384e-15
0.00101602175371
6.19969864977e-15
0.00101602175371
1.24808589147e-15
0.00101602175371
7.1001731074e-16
0.00101602175371
-3.79514827744e-15
0.00101602175371
-6.10268356549e-15
0.00101602175371
-4.33099571041e-15
-1.11851365612e-14
0.00127539470675
0.00183493362115
0.00120239580713
0.00070244464883
0.0011481420348
0.000295571660724
0.00113083079412
9.14715790008e-05
0.00112508861271
1.90530719437e-05
0.00112443712311
3.5089168389e-06
0.0011245919486
-2.27346752816e-06
0.00112486789037
-9.55600598272e-07
0.00112500718143
-8.68790802558e-07
0.00112507149743
-1.84567068763e-07
0.00112509157098
-1.29542062462e-07
0.00112509729164
5.7756721161e-10
0.00112509769226
-1.02122161804e-08
0.00112509737261
6.92354050691e-09
0.00112509698713
-3.70294343696e-10
0.00112509681808
1.84825460787e-09
0.00112509673678
-1.47411377872e-10
0.00112509671599
3.1903762215e-10
0.00112509670899
-8.49804979614e-11
0.00112509670943
4.79406400244e-11
0.00112509670973
-2.66456270635e-11
0.00112509671035
8.54961502968e-12
0.00112509671051
-6.1448704361e-12
0.00112509671063
2.01751209539e-12
0.00112509671064
-1.23487001967e-12
0.00112509671066
5.20087561857e-13
0.00112509671065
-2.4504220556e-13
0.00112509671066
1.32297704737e-13
0.00112509671066
-5.05785602555e-14
0.00112509671065
2.97221393233e-14
0.00112509671065
-1.25690700844e-14
0.00112509671066
7.36148413241e-16
0.00112509671066
2.34249151154e-15
0.00112509671065
-4.06156165471e-15
0.00112509671065
1.0727901627e-14
0.00112509671065
2.71058385074e-15
0.00112509671065
1.33408074947e-15
0.00112509671065
-3.54271827322e-15
0.00112509671065
-3.53965998598e-15
0.00112509671065
-7.32438534741e-15
-3.67096331624e-15
0.00132001062168
0.00173443517931
0.00127434211607
0.000748113172474
0.00123134861279
0.000338565162542
0.00121624094124
0.000106579244768
0.00121075059213
2.4543423529e-05
0.00121006193047
4.19757996059e-06
0.00121012915555
-2.3406940392e-06
0.00121037877067
-1.20521583127e-06
0.00121050031358
-9.90333077008e-07
0.00121056274401
-2.46997649513e-07
0.00121058103718
-1.47835452667e-07
0.00121058727797
-5.66308343574e-09
0.00121058759725
-1.05314373951e-08
0.00121058747483
7.045894528e-09
0.00121058708094
2.3592770542e-11
0.00121058695039
1.9788354928e-09
0.00121058686223
-5.92746772231e-11
0.00121058684732
3.33942582013e-10
0.00121058683772
-7.53677037518e-11
0.0012105868391
4.65553645997e-11
0.00121058683875
-2.62927346872e-11
0.00121058683957
7.71405387582e-12
0.0012105868396
-6.17053688371e-12
0.00121058683977
1.84332935629e-12
0.00121058683975
-1.22162506967e-12
0.00121058683978
4.88828832746e-13
0.00121058683977
-2.32877501162e-13
0.00121058683978
1.29253656406e-13
0.00121058683977
-4.68063319512e-14
0.00121058683977
2.70914069995e-14
0.00121058683977
-5.96284350068e-15
0.00121058683978
1.94425599437e-15
0.00121058683977
2.45813278448e-15
0.00121058683977
-2.55730965563e-15
0.00121058683977
1.00629169048e-14
0.00121058683977
3.48402129459e-15
0.00121058683977
2.54096416703e-15
0.00121058683977
-1.59181015851e-15
0.00121058683977
-3.45432300409e-15
0.00121058683977
-1.0615385366e-14
-2.17726274632e-15
0.00134618853288
0.00160775882457
0.00132536615366
0.000768935569085
0.00129484400646
0.000369087310079
0.00128272355111
0.000118699694025
0.00127787327756
2.93936987329e-05
0.00127720058405
4.8702753852e-06
0.00127719228323
-2.3323944291e-06
0.00127740114152
-1.41407450688e-06
0.00127749989176
-1.08908268457e-06
0.00127755619308
-3.03298999231e-07
0.00127757187219
-1.63514815409e-07
0.00127757807423
-1.18650318648e-08
0.00127757833473
-1.0791851931e-08
0.00127757837513
7.00543109696e-09
0.00127757800747
3.91233034715e-10
0.0012775779154
2.07093548565e-09
0.00127757782882
2.72985470369e-11
0.00127757781921
3.43536056778e-10
0.00127757780836
-6.45070865005e-11
0.0012775778103
4.46182034385e-11
0.00127757780948
-2.54727132889e-11
0.00127757781039
6.80039628006e-12
0.00127757781031
-6.09279941647e-12
0.00127757781051
1.64085679938e-12
0.00127757781047
-1.18773036295e-12
0.00127757781051
4.49109935195e-13
0.00127757781049
-2.20351505007e-13
0.0012775778105
1.22762205107e-13
0.0012775778105
-4.30424764526e-14
0.0012775778105
2.29221827936e-14
0.0012775778105
-6.67661531466e-15
0.0012775778105
6.4335212785e-15
0.0012775778105
-2.27170560957e-15
0.0012775778105
-5.65481972343e-15
0.0012775778105
2.66255847602e-15
0.0012775778105
-1.88397092668e-15
0.0012775778105
5.91345176633e-15
0.0012775778105
-3.54397753064e-15
0.00127757781049
-6.25246667489e-15
0.00127757781049
-1.00457310135e-14
5.64925437816e-15
0.00135993283865
0.00146733816386
0.0013608814102
0.000767987013338
0.00134297469477
0.000386994027527
0.00133435305995
0.000127321322907
0.00133043039708
3.33163623408e-05
0.00132982973306
5.47094158887e-06
0.00132975891033
-2.26157258088e-06
0.00132991806485
-1.57322965134e-06
0.0013299899988
-1.161016079e-06
0.00133003693903
-3.50239136185e-07
0.00133004919789
-1.75773943595e-07
0.00133005491183
-1.75789297521e-08
0.00133005509633
-1.09762469461e-08
0.00133005527374
6.82798586276e-09
0.00133005495443
7.10509626755e-10
0.00133005490239
2.12300574952e-09
0.00133005482334
1.06342574206e-10
0.00133005481907
3.47793351769e-10
0.00133005480792
-5.33558619913e-11
0.00133005481022
4.23226108371e-11
0.00133005480905
-2.43116648074e-11
0.00133005480997
5.87758158692e-12
0.00133005480981
-5.93038463115e-12
0.00133005481001
1.43250569717e-12
0.00133005480997
-1.14076306255e-12
0.00133005481
4.05892269439e-13
0.00133005480999
-2.06874331403e-13
0.00133005480999
1.13063464711e-13
0.00133005480999
-3.62602429209e-14
0.00133005480999
1.82662509595e-14
0.00133005480999
-7.59343783299e-15
0.00133005481
1.39433235053e-14
0.00133005480999
-1.35406445907e-15
0.00133005480999
-6.36537478772e-15
0.00133005480999
-2.04285362092e-16
0.00133005480999
-3.75600168268e-15
0.00133005480999
9.70841072959e-15
0.00133005480999
-4.25209976279e-15
0.00133005480999
-6.06212699531e-15
0.00133005480999
-8.82678352998e-15
6.12503587367e-15
0.00136546588287
0.00132138445976
0.00138500770079
0.00074844520886
0.00137919228899
0.000392809442779
0.00137434205789
0.000132171548581
0.0013715427152
3.61157048578e-05
0.00137106490669
5.94875236511e-06
0.00137094454685
-2.14121323591e-06
0.00137104911176
-1.67779535114e-06
0.00137109135079
-1.20325467327e-06
0.00137112656974
-3.85457883e-07
0.00137113471551
-1.83919966081e-07
0.00137113958709
-2.24505237418e-08
0.00137113965975
-1.10487896477e-08
0.00137113995307
6.53464141228e-09
0.00137113969558
9.67957066401e-10
0.00137113968532
2.13329531428e-09
0.00137113961798
1.73677084374e-10
0.00137113961934
3.46419860973e-10
0.00137113960856
-4.25735138955e-11
0.00137113961111
3.97677751558e-11
0.00137113960968
-2.28822445368e-11
0.00137113961056
4.99293684558e-12
0.00137113961032
-5.69290689616e-12
0.00137113961053
1.22934591219e-12
0.00137113961047
-1.08168888489e-12
0.00137113961051
3.62218239109e-13
0.00137113961049
-1.90799709563e-13
0.0013711396105
9.89238633792e-14
0.0013711396105
-2.77703117625e-14
0.0013711396105
1.46873828285e-14
0.0013711396105
-6.6988614705e-15
0.0013711396105
1.79652294702e-14
0.0013711396105
-4.71599415988e-16
0.0013711396105
-9.1831934438e-15
0.0013711396105
-1.44205475115e-15
0.0013711396105
-5.04233035203e-15
0.00137113961049
5.85424480847e-15
0.00137113961049
-4.60797556601e-15
0.00137113961049
-9.5134511733e-15
0.00137113961049
-9.66872388262e-15
9.90615894035e-15
0.00136574922989
0.00117514741085
0.00140086607159
0.000713328377665
0.00140622473042
0.000387450788502
0.00140522086176
0.000133175412653
0.00140365964419
3.767692144e-05
0.0014033457571
6.26264162152e-06
0.00140318804056
-1.9834967929e-06
0.00140323617882
-1.72593448908e-06
0.00140324700497
-1.21408053737e-06
0.00140326891479
-4.0736741258e-07
0.00140327241764
-1.87423020405e-07
0.00140327617994
-2.62128806341e-08
0.00140327609991
-1.09686439947e-08
0.00140327649093
6.14362110792e-09
0.00140327630253
1.15631332584e-09
0.00140327633529
2.10055142637e-09
0.00140327628246
2.26519991873e-10
0.00140327628977
3.3910586495e-10
0.00140327627983
-3.26372118479e-11
0.00140327628261
3.69854443394e-11
0.00140327628096
-2.12326865732e-11
0.00140327628178
4.1711612037e-12
0.00140327628148
-5.39192229952e-12
0.00140327628167
1.0325067082e-12
0.0014032762816
-1.01184166419e-12
0.00140327628164
3.22765447431e-13
0.00140327628162
-1.74536870975e-13
0.00140327628163
9.22792188652e-14
0.00140327628163
-2.37559240855e-14
0.00140327628163
1.55978182092e-14
0.00140327628163
-2.20829497685e-15
0.00140327628163
1.88152457156e-14
0.00140327628163
8.55562310659e-16
0.00140327628163
-7.44973540784e-15
0.00140327628163
-4.6279968799e-15
0.00140327628163
-8.23316429236e-15
0.00140327628163
-1.61314109547e-15
0.00140327628162
-5.04934532205e-15
0.00140327628162
-1.23435147332e-14
0.00140327628162
-6.55984325205e-15
4.69285982133e-15
0.00136284997028
0.00103180962355
0.00141081105371
0.000665367301408
0.00142621842047
0.000372043427037
0.00142897935253
0.000130414477076
0.00142870176364
3.79545086656e-05
0.00142858099701
6.3834101737e-06
0.00142839674409
-1.79924360544e-06
0.00142838894012
-1.71813139792e-06
0.00142836775284
-1.19289314712e-06
0.00142837546112
-4.15075346124e-07
0.00142837398022
-1.85942263101e-07
0.00142837644884
-2.86815991813e-08
0.00142837617889
-1.0698602766e-08
0.00142837665142
5.67111487104e-09
0.00142837653486
1.27283149279e-09
0.00142837661101
2.02440211556e-09
0.00142837657436
2.6318839881e-10
0.00142837658785
3.25600762811e-10
0.00142837657907
-2.386468902e-11
0.00142837658208
3.39768791799e-11
0.00142837658026
-1.9405478653e-11
0.001428376581
3.42764690651e-12
0.00142837658063
-5.02062338473e-12
0.0014283765808
8.5385011185e-13
0.00142837658073
-9.30463129604e-13
0.00142837658077
2.8551440429e-13
0.00142837658075
-1.59452427349e-13
0.00142837658076
8.44975507937e-14
0.00142837658076
-2.03767378486e-14
0.00142837658076
1.68998293031e-14
0.00142837658076
-5.32595742436e-15
0.00142837658076
1.46079464526e-14
0.00142837658076
3.96203773537e-15
0.00142837658076
-7.74376054037e-15
0.00142837658076
-4.90821404799e-15
0.00142837658075
-1.00890936174e-14
0.00142837658075
-7.25812342407e-15
0.00142837658075
-7.02957887521e-15
0.00142837658075
-1.15053251901e-14
0.00142837658075
-4.53938677431e-15
2.45642816288e-15
0.00135820131413
0.00089312049547
0.00141661101947
0.000606957599741
0.00144085465302
0.00034779979912
0.00144717903396
0.000124090093798
0.00144817261131
3.69609291637e-05
0.00144826174534
6.29427769421e-06
0.00144806008889
-1.59758656203e-06
0.00144799861774
-1.65666107432e-06
0.00144794586026
-1.14013571676e-06
0.00144793910441
-4.08319130636e-07
0.0014479324982
-1.79336120183e-07
0.00144793356726
-2.97507923368e-08
0.00144793307907
-1.0210334846e-08
0.00144793361864
5.13158489146e-09
0.00144793357324
1.31819638394e-09
0.00144793369208
1.90555680503e-09
0.00144793367233
2.82954662151e-10
0.0014479336921
3.05831684658e-10
0.00144793368467
-1.64441983738e-11
0.00144793368791
3.07373037253e-11
0.00144793368594
-1.74351184286e-11
0.0014479336866
2.77448299345e-12
0.00144793368617
-4.59011504746e-12
0.00144793368632
6.9823656788e-13
0.00144793368624
-8.46962314157e-13
0.00144793368628
2.46652368519e-13
0.00144793368626
-1.42137939883e-13
0.00144793368627
7.46974166916e-14
0.00144793368627
-1.78954545618e-14
0.00144793368627
1.59329991635e-14
0.00144793368627
-2.54826426502e-15
0.00144793368627
9.13192394148e-15
0.00144793368627
3.51800574555e-15
0.00144793368627
-7.96715628335e-15
0.00144793368627
-4.70035918881e-15
0.00144793368627
-6.79280462078e-15
0.00144793368626
-8.73710357648e-15
0.00144793368626
-7.367385799e-15
0.00144793368626
-4.31313550743e-15
0.00144793368626
-2.00220795925e-15
7.43253857745e-16
0.00135278878301
0.000759843901959
0.00141958755118
0.000540158831766
0.00145144386841
0.000315943487506
0.00146104143106
0.000114492530049
0.00146324622461
3.47561331473e-05
0.00146355004414
5.9904592758e-06
0.00146333829337
-1.38583494036e-06
0.00146322682764
-1.54519604477e-06
0.00146314389706
-1.05720533855e-06
0.00146312298375
-3.87405477816e-07
0.00146311130914
-1.67661525265e-07
0.00146311094693
-2.93887210111e-08
0.00146311022402
-9.48737253707e-09
0.0014631108178
4.53786067239e-09
0.00146311084023
1.29572288651e-09
0.00146311099994
1.74583463743e-09
0.00146311099701
2.85900979683e-10
0.00146311102295
2.79903855616e-10
0.00146311101696
-1.0468100633e-11
0.00146311102044
2.72637220625e-11
0.00146311101834
-1.53376485955e-11
0.00146311101891
2.20931466356e-12
0.00146311101843
-4.10630861117e-12
0.00146311101857
5.58204843658e-13
0.00146311101847
-7.53259912902e-13
0.00146311101851
2.13538919062e-13
0.00146311101849
-1.26389716939e-13
0.0014631110185
6.75206603609e-14
0.0014631110185
-1.49252417961e-14
0.0014631110185
1.38595851818e-14
0.0014631110185
-3.25397225221e-15
0.0014631110185
6.21417524042e-15
0.0014631110185
3.97484603104e-16
0.0014631110185
-1.00134753277e-14
0.0014631110185
-4.34438794924e-15
0.0014631110185
-4.28186408724e-15
0.0014631110185
-7.99402322877e-15
0.0014631110185
-6.91353236549e-15
0.0014631110185
-1.64857389151e-15
0.0014631110185
8.10517805054e-18
3.38437669901e-15
0.00134728316569
0.000632072929845
0.00142072261397
0.000466719380438
0.00145900125678
0.000277664849929
0.00147151765104
0.000101976135904
0.00147483554597
3.14382356405e-05
0.00147534784766
5.47815822781e-06
0.00147513149854
-1.16948481218e-06
0.0014749748117
-1.3885097337e-06
0.0014748639599
-9.46353858483e-07
0.00147482970572
-3.53151000623e-07
0.00147481320932
-1.51165062454e-07
0.00147481145309
-2.76326425835e-08
0.00147481049216
-8.52641549402e-09
0.00147481112889
3.9011957732e-09
0.00147481121376
1.21082910998e-09
0.00147481141141
1.54816131544e-09
0.00147481142452
2.72813347903e-10
0.0014748114563
2.48122390686e-10
0.00147481145176
-5.93634038134e-12
0.00147481145547
2.35573869818e-11
0.00147481145327
-1.31428700122e-11
0.00147481145376
1.71653052594e-12
0.00147481145323
-3.56730190608e-12
0.00147481145335
4.36760436941e-13
0.00147481145325
-6.50766501486e-13
0.00147481145328
1.77611954755e-13
0.00147481145326
-1.06174043326e-13
0.00147481145327
6.01459969981e-14
0.00147481145327
-1.13272035683e-14
0.00147481145327
1.23140874935e-14
0.00147481145327
2.1600460274e-15
0.00147481145327
2.54233185831e-15
0.00147481145327
3.46057230314e-16
0.00147481145327
-7.71523199822e-15
0.00147481145327
1.41989416991e-17
0.00147481145327
2.15940986527e-15
0.00147481145327
-2.97889717159e-15
0.00147481145327
-6.25997086122e-15
0.00147481145327
2.20908749052e-15
0.00147481145327
3.58375155094e-15
-3.47778415765e-15
0.00134213529797
0.000509449828436
0.00142074039775
0.000388114274751
0.00146430681201
0.000234098440251
0.00147934286149
8.69400876383e-05
0.00148364565056
2.71354440682e-05
0.00148435057175
4.77323720678e-06
0.00148413342336
-9.52335341221e-07
0.00148393715978
-1.19224649641e-06
0.00148380138872
-8.1058319896e-07
0.00148375505995
-3.06821998124e-07
0.00148373416302
-1.30268022046e-07
0.00148373111282
-2.45825760168e-08
0.00148372992381
-7.33741982007e-09
0.00148373059377
3.23130236677e-09
0.00148373073403
1.0705571829e-09
0.00148373096568
1.31649368328e-09
0.00148373099342
2.45091800054e-10
0.00148373103054
2.11016923478e-10
0.00148373102736
-2.76031028389e-12
0.00148373103129
1.96242659249e-11
0.00148373102901
-1.08615144672e-11
0.00148373102943
1.29526289436e-12
0.00148373102885
-2.98905001228e-12
0.00148373102895
3.34321488895e-13
0.00148373102884
-5.35293523933e-13
0.00148373102888
1.42551508809e-13
0.00148373102886
-8.60039786442e-14
0.00148373102887
5.23818056621e-14
0.00148373102887
-5.56448898974e-15
0.00148373102887
1.16339949842e-14
0.00148373102887
3.12646989004e-15
0.00148373102887
1.82864355775e-15
0.00148373102887
-5.72953211499e-15
0.00148373102887
-4.59252153369e-15
0.00148373102887
6.49757123748e-16
0.00148373102887
3.36652646182e-15
0.00148373102887
1.27700090508e-15
0.00148373102886
-5.01395442889e-15
0.00148373102887
2.6501540034e-15
0.00148373102886
2.00010779748e-15
-4.39476750512e-15
0.00133764346478
0.000391318563413
0.0014201692955
0.000305588435802
0.00146795250324
0.000186315236218
0.00148507865564
6.98139373841e-05
0.00149021490047
2.19991969555e-05
0.00149108840133
3.89973608276e-06
0.00149087274465
-7.36677595251e-07
0.00149064323517
-9.62737166195e-07
0.00149048618819
-6.53536667445e-07
0.00149042943826
-2.50071914846e-07
0.00149040471712
-1.05546730052e-07
0.00149040052834
-2.03939061299e-08
0.00149039913369
-5.94279761199e-09
0.0014903998286
2.53645686934e-09
0.00149040001588
8.83288770407e-10
0.00149040027666
1.05568381567e-09
0.00149040031711
2.04657715754e-10
0.00149040035887
1.69265097352e-10
0.0014904003569
-7.89510412749e-13
0.00149040036103
1.54902153252e-11
0.00149040035868
-8.51846450114e-12
0.00149040035904
9.35335595876e-13
0.00149040035842
-2.36561210943e-12
0.00149040035851
2.4502187268e-13
0.00149040035839
-4.19904922582e-13
0.00149040035843
1.11688970703e-13
0.00149040035841
-6.34446700901e-14
0.00149040035842
4.29119786041e-14
0.00149040035842
-1.78115441525e-15
0.00149040035842
1.3994776905e-14
0.00149040035842
2.78176940098e-15
0.00149040035842
1.21834412964e-15
0.00149040035842
-7.49225494645e-15
0.00149040035842
-4.53287759704e-15
0.00149040035842
1.32744525718e-15
0.00149040035842
1.99195951019e-15
0.00149040035841
-2.43217942484e-15
0.00149040035841
-1.90069333556e-16
0.00149040035841
-1.62522694705e-15
0.00149040035841
2.90078847962e-15
-5.91658752911e-15
0.00133400104065
0.000276829725231
0.00141938826997
0.000220201196559
0.00147037874506
0.000135324763804
0.00148914558283
5.1047102484e-05
0.00149494638645
1.61983914006e-05
0.00149595778348
2.88833840977e-06
0.0014957446372
-5.23530326165e-07
0.00149548874512
-7.06845051912e-07
0.00149531459512
-4.79387126899e-07
0.00149524939941
-1.84876122775e-07
0.00149522156198
-7.77091237929e-08
0.001495216437
-1.52690092059e-08
0.00149521487013
-4.37598069373e-09
0.00149521558299
1.82365087293e-09
0.00149521580787
6.58420789573e-10
0.00149521609216
7.7138071316e-10
0.00149521614294
1.5387813e-10
0.0014952161885
1.23730029232e-10
0.00149521618752
1.82506598364e-13
0.00149521619182
1.11931769784e-11
0.00149521618943
-6.11482148271e-12
0.00149521618973
6.30942796692e-13
0.00149521618908
-1.7184739322e-12
0.00149521618916
1.67518747026e-13
0.00149521618904
-3.01506850091e-13
0.00149521618907
7.72487966484e-14
0.00149521618905
-4.17655167888e-14
0.00149521618906
3.06643392803e-14
0.00149521618906
-2.53061965309e-15
0.00149521618906
1.6440801976e-14
0.00149521618906
-3.8680737544e-16
0.00149521618906
6.89515295871e-16
0.00149521618906
-6.25601326348e-15
0.00149521618906
-7.0836886807e-15
0.00149521618906
5.65096948633e-17
0.00149521618906
3.3413191291e-15
0.00149521618906
-2.80501705376e-15
0.00149521618906
3.80732522884e-15
0.00149521618906
1.94540531838e-16
0.00149521618906
-1.60717640515e-15
1.28339734512e-15
0.00133132976272
0.000165012167598
0.00141866090643
0.000132870041902
0.00147190197124
8.20837005832e-05
0.00149184763765
3.11014394399e-05
0.00149813149877
9.91452878071e-06
0.00149924499425
1.77484198759e-06
0.00149903436919
-3.12904415503e-07
0.00149875935636
-4.3183202459e-07
0.00149857269127
-2.92722470928e-07
0.00149850127902
-1.13463879856e-07
0.00149847113854
-4.75684601078e-08
0.0014984653173
-9.44781252057e-09
0.00149846362067
-2.6794143526e-09
0.00149846434554
1.09881786201e-09
0.00149846459783
4.06158597014e-10
0.00149846489936
4.69835175925e-10
0.00149846495778
9.54574892734e-11
0.00149846500614
7.53928634105e-11
0.00149846500591
4.06434821197e-13
0.00149846501034
6.76558703112e-12
0.00149846500791
-3.68700592644e-12
0.00149846500818
3.58969681022e-13
0.0014984650075
-1.03963406291e-12
0.00149846500757
9.43439481458e-14
0.00149846500744
-1.80903684743e-13
0.00149846500748
4.97883067072e-14
0.00149846500746
-1.94149108411e-14
0.00149846500747
1.93240075902e-14
0.00149846500747
4.01957780487e-15
0.00149846500747
1.80024738638e-14
0.00149846500747
-4.64083146464e-15
0.00149846500747
4.62681040129e-16
0.00149846500747
-8.06371497498e-15
0.00149846500747
-5.03121521372e-15
0.00149846500747
6.70626412873e-16
0.00149846500747
5.41472952852e-16
0.00149846500747
-3.17758897409e-15
0.00149846500746
5.43981442487e-15
0.00149846500746
5.92546063795e-16
0.00149846500746
-2.15706810221e-15
1.07385903413e-15
0.00132970237187
5.48220017475e-05
0.00141815957626
4.44128262167e-05
0.00147273469605
2.75085813062e-05
0.0014933900292
1.04461099064e-05
0.00149996697415
3.33758282575e-06
0.00150114315663
5.98658360173e-07
0.00150093433646
-1.04083587625e-07
0.00150064774207
-1.45237304445e-07
0.00150045344806
-9.84288416582e-08
0.00150037823189
-3.8247790867e-08
0.0015003466784
-1.60147930261e-08
0.00150034042827
-3.19768869364e-09
0.00150033865103
-9.02245445224e-10
0.00150033938277
3.67091573409e-10
0.00150033965172
1.37237485484e-10
0.00150033996379
1.57762110205e-10
0.00150034002688
3.23474130243e-11
0.00150034007696
2.5327536505e-11
0.0015003400772
1.73194990216e-13
0.0015003400817
2.2567429696e-12
0.00150034007925
-1.23419250151e-12
0.0015003400795
1.22695045864e-13
0.00150034007881
-3.47481468278e-13
0.00150034007887
3.02117898285e-14
0.00150034007875
-5.89699247799e-14
0.00150034007878
2.13471604953e-14
0.00150034007876
4.57473265553e-18
0.00150034007877
9.54081844864e-15
0.00150034007877
1.82673823653e-15
0.00150034007877
1.50812054288e-14
0.00150034007877
-3.45329255587e-15
0.00150034007877
-5.01677458496e-16
0.00150034007877
-4.24111555268e-15
0.00150034007877
-5.83976620489e-15
0.00150034007877
2.4197415009e-15
0.00150034007877
-3.05914924734e-16
0.00150034007877
1.03774710957e-15
0.00150034007877
3.55101853765e-15
0.00150034007877
3.98105739144e-15
0.00150034007876
-1.60965794357e-15
3.72428189994e-15
0.00132915623225
-5.48220237818e-05
0.00141798187845
-4.44128309769e-05
0.00147299902429
-2.75085650293e-05
0.00149389124811
-1.04461102792e-05
0.00150056642053
-3.33759009913e-06
0.00150176373411
-5.98656471286e-07
0.00150155556421
1.04086766993e-07
0.00150126509124
1.45236087716e-07
0.00150106823424
9.84278599802e-08
0.00150099173768
3.82486249952e-08