/*--------------------------------*- C++ -*----------------------------------*\
| =========                 |                                                 |
| \\      /  F ield         | OpenFOAM: The Open Source CFD Toolbox           |
|  \\    /   O peration     | Version:  2112                                  |
|   \\  /    A nd           | Website:  www.openfoam.com                      |
|    \\/     M anipulation  |                                                 |
\*---------------------------------------------------------------------------*/
FoamFile
{
    version     2.0;
    format      ascii;
    arch        "LSB;label=32;scalar=64";
    class       volScalarField;
    location    "0.6";
    object      T;
}
// * * * * * * * * * * * * * * * * * * * * * * * * * * * * * * * * * * * * * //

dimensions      [0 0 0 1 0 0 0];

internalField   nonuniform List<scalar> 
1681
(
302.643386949
304.574484605
305.482141231
306.135295398
306.661081411
307.073145184
307.401451381
307.665006375
307.876783142
308.046935759
308.183438818
308.292671342
308.379804275
308.44905627
308.503878018
308.547093542
308.581010624
308.60751024
308.628120017
308.644075433
308.65637096
308.665803027
308.673006164
308.678483199
308.682630319
308.685757926
308.688107979
308.689868166
308.691183255
308.692164236
308.692895738
308.693442026
308.693851756
308.6941616
308.694398933
308.694584155
308.694732166
308.694837516
308.694892963
308.694927899
308.694937492
302.195499715
304.16450312
305.157291691
305.846012929
306.384882305
306.805722043
307.139558487
307.406610401
307.620692744
307.792370239
307.929876488
308.039761498
308.127309149
308.196814891
308.251782232
308.295071742
308.329016498
308.355514932
308.376106598
308.392034994
308.404299865
308.413700995
308.420874915
308.426325527
308.43044949
308.433557303
308.435890774
308.437637273
308.438941192
308.439913142
308.440637406
308.441177928
308.441583056
308.441889164
308.442123352
308.442305621
308.442449708
308.442553217
308.4426131
308.442653925
308.442662651
301.850369677
303.795595053
304.845937901
305.56399145
306.114723561
306.543168009
306.881809328
307.151891276
307.367942077
307.540897599
307.679223407
307.789622606
307.877480278
307.94716038
308.002213153
308.045531164
308.079469329
308.105940873
308.126495233
308.142382348
308.154606023
308.163968461
308.171107485
308.176527534
308.180625335
308.183711178
308.186026489
308.187758162
308.189050089
308.190012417
308.190729012
308.19126345
308.191663736
308.19196593
308.192196841
308.192376087
308.192516676
308.192618673
308.192682075
308.192727973
308.192736549
301.580897604
303.46517147
304.549651451
305.290231146
305.851003562
306.285771017
306.62841309
306.901000078
307.118644367
307.292603352
307.431544247
307.542303422
307.63035414
307.700119668
307.755190269
307.798485492
307.832378272
307.858793702
307.879288833
307.895118302
307.907288622
307.916603376
307.923700883
307.929085518
307.933153617
307.936214913
307.93851019
307.940225679
307.941504633
307.942456629
307.943165041
307.943693016
307.944088181
307.944386253
307.944613739
307.944789901
307.944927304
307.945027982
307.945094141
307.945144079
307.945152834
301.367665795
303.169849894
304.269238496
305.025476225
305.594053463
306.033763721
306.37953775
306.654056975
306.872887926
307.047552663
307.186886822
307.297838593
307.385955269
307.455709468
307.510724234
307.553940673
307.587745629
307.614072895
307.634484697
307.65023848
307.662342006
307.671599108
307.678647742
307.683991556
307.688025998
307.691059861
307.693333006
307.695030786
307.696295664
307.697236532
307.697936183
307.698457272
307.698847005
307.699140731
307.699364635
307.699537653
307.699672088
307.699771542
307.699839814
307.699892917
307.699902036
301.196635829
302.905988798
304.004920167
304.770233897
305.344131391
305.787327916
306.135314601
306.411155039
306.630739644
306.805793363
306.945284697
307.056250883
307.144298171
307.213937936
307.268818301
307.311896178
307.345567949
307.371772754
307.392075404
307.407734143
307.419756431
307.428945157
307.435936989
307.44123415
307.445230663
307.448233975
307.450482716
307.452161139
307.453410749
307.454339627
307.455029893
307.455543644
307.455927614
307.456216755
307.456436914
307.456606723
307.456738336
307.456836592
307.456906428
307.456961972
307.456971555
301.057575695
302.670000432
303.756488892
304.524801282
305.101421015
305.546598088
305.895841719
306.172363095
306.392247486
306.567358065
306.706758939
306.817552622
306.905388511
306.974805631
307.02946911
307.072345636
307.105836551
307.131882831
307.152049153
307.167592464
307.179518296
307.188627337
307.195554004
307.200798356
307.204752428
307.207721895
307.209943836
307.211601164
307.212834249
307.21375023
307.214430457
307.214936395
307.215314257
307.215598565
307.215814814
307.215981343
307.216110223
307.216207258
307.216278182
307.21633557
307.216345651
300.942970351
302.458521461
303.523437153
304.2892959
304.866033663
305.311664693
305.661186886
305.937728035
306.157442477
306.332265814
306.471319484
306.581746819
306.669224019
306.738306249
306.792667272
306.835277299
306.86853789
306.894388209
306.914389991
306.929796707
306.941610276
306.950627886
306.957480698
306.962665846
306.966572791
306.969504993
306.971697648
306.973332078
306.974547337
306.975449485
306.976118997
306.976616633
306.976988035
306.97726726
306.97747943
306.977642602
306.977768792
306.977864548
306.977936148
306.977994876
306.978005447
300.847258637
302.268494429
303.305059463
304.063686611
304.638012963
305.082577397
305.431390133
305.707276765
305.926340312
306.100523421
306.23896622
306.34882805
306.435795202
306.504427192
306.558397824
306.600674408
306.633653843
306.659269737
306.679077992
306.694326364
306.706011432
306.714925542
306.721695578
306.726814955
306.730669965
306.733561397
306.735722217
306.737331907
306.738528011
306.739415368
306.740073478
306.740562317
306.740926902
306.741200791
306.741408713
306.741568444
306.741691952
306.741786346
306.741858261
306.741917904
306.741928923
300.766293973
302.097195117
303.100530534
303.847822959
304.417341109
304.859348368
305.20646603
305.481017877
305.698942692
305.87212654
306.009689872
306.118783165
306.205085921
306.273150035
306.326640603
306.368515485
306.401161942
306.426504206
306.446089392
306.461157265
306.472697291
306.481495616
306.488173794
306.493220723
306.49701891
306.49986601
306.501992412
306.503575493
306.504751096
306.505622698
306.506268711
306.506748256
306.507105668
306.507373969
306.507577474
306.507733674
306.50785448
306.507947415
306.508019327
306.508079517
306.508090923
300.696960409
301.942228497
302.908963444
303.641461705
304.203946024
304.641955623
304.986405787
305.258943094
305.475238441
305.647060561
305.783472708
305.891591866
305.977073851
306.044450894
306.09737054
306.13877457
306.171035563
306.196064499
306.215396718
306.23026167
306.241639927
306.250310046
306.256887191
306.261854928
306.265591361
306.26839054
306.270479921
306.272034516
306.273188268
306.274043145
306.27467637
306.275146124
306.275496009
306.275758471
306.275957392
306.276109967
306.276228031
306.276319398
306.276391024
306.276451442
306.276463162
300.636897541
301.801507686
302.72945165
303.444289994
303.997708841
304.430346385
304.771179221
305.041028575
305.255204462
305.425301348
305.560289133
305.667227175
305.751730859
305.818300724
305.870557898
305.911421412
305.943244078
305.967919717
305.986968873
306.001608352
306.012808016
306.021337448
306.027804345
306.032686123
306.036355857
306.039103518
306.041153276
306.042677509
306.043808063
306.044645252
306.045264998
306.045724471
306.046066478
306.046322856
306.046517025
306.046665875
306.046781142
306.046870828
306.046941913
306.04700228
306.047014236
300.584302286
301.67322482
302.56109834
303.255945003
303.79847128
304.224440423
304.560736611
304.827236078
305.038806561
305.206815867
305.340106172
305.445655818
305.529023311
305.594665572
305.646168475
305.686421628
305.717752983
305.742035277
305.76077123
305.775162655
305.786166897
305.794543159
305.800890601
305.805679663
305.809277766
305.811970327
305.81397787
305.815469875
305.816575894
305.81739444
305.818000028
305.818448734
305.818782519
305.81903257
305.819221825
305.819366847
305.81947925
305.819567136
305.819637454
305.81969752
305.819709633
300.537785273
301.555819225
302.403036099
303.076030207
303.606042639
304.024133296
304.355010466
304.617514036
304.826000183
304.991562723
305.122883881
305.226838553
305.308912327
305.37350678
305.424163767
305.46373684
305.494524005
305.518373002
305.536765695
305.550886563
305.561678618
305.569889285
305.576108111
305.58079774
305.584319313
305.586953218
305.588915981
305.590373913
305.591454076
305.592253037
305.592843797
305.593281259
305.593606485
305.593849974
305.594034153
305.594175243
305.594284703
305.594370673
305.594440016
305.59449956
305.594511752
300.496266253
301.447946005
302.254439327
302.904128542
303.420206222
303.829299462
304.1539172
304.411798558
304.616731073
304.779492632
304.908575708
305.010730439
305.091354003
305.154781157
305.20450111
305.243324785
305.2735152
305.2968912
305.31491078
305.328738749
305.339301981
305.347334733
305.353415867
305.357999414
305.361439611
305.364011348
305.365926797
305.367348837
305.368401846
305.369180296
305.36975557
305.370181324
305.370497662
305.370734357
305.370913301
305.371050353
305.37115679
305.371240725
305.371308905
305.371367725
305.371379922
300.458897519
301.348446686
302.114531346
302.73981284
303.240725092
303.639795218
303.957358728
304.210014369
304.410935876
304.570548842
304.697128798
304.797281082
304.876299598
304.938441135
304.987133802
305.02513942
305.054681032
305.077544732
305.095161657
305.10867463
305.118992594
305.126835259
305.132769741
305.137240647
305.140594692
305.143100804
305.144966446
305.146350809
305.147375388
305.148132422
305.148691569
305.149105161
305.14941229
305.149641967
305.149815522
305.149948429
305.150051755
305.15013354
305.150200385
305.150258298
305.150270431
300.425007538
301.256322736
301.982587705
302.582653905
303.06734712
303.455461416
303.765223969
304.012075685
304.208542702
304.364667521
304.488484275
304.586434842
304.663695699
304.724434901
304.772011214
304.809131013
304.837972457
304.860285084
304.877470221
304.890646416
304.900702914
304.908343508
304.914122524
304.91847434
304.921737544
304.924174636
304.92598803
304.927332967
304.928327872
304.929062605
304.929605
304.930005988
304.930303598
304.930526039
304.930694053
304.930822708
304.930922836
304.931002358
304.931067709
304.931124548
304.931136551
300.394059217
301.170712185
301.857936815
302.432226619
302.89980932
303.276125956
303.57739026
303.817887054
304.009471648
304.161778108
304.282577501
304.378131034
304.453484379
304.512706523
304.559078897
304.595246233
304.623336995
304.64506043
304.661785147
304.674603168
304.684382296
304.691809062
304.697423968
304.701650376
304.704818146
304.707182901
304.708941662
304.710245468
304.711209483
304.711921057
304.712446091
304.712834047
304.713121837
304.713336832
304.713499158
304.713623457
304.713720295
304.713797444
304.713861154
304.713916767
304.713928581
300.365618834
301.090869308
301.739958799
302.288114402
302.73784152
303.101606042
303.393724677
303.627344138
303.813635297
303.96180365
304.079338311
304.172304101
304.245603336
304.303196067
304.348278674
304.383428229
304.410718806
304.431815698
304.448051952
304.460490851
304.469977044
304.477178484
304.482620833
304.486715664
304.489783521
304.492072702
304.493774508
304.495035523
304.49596747
304.496655049
304.497162135
304.497536646
304.497814326
304.498021671
304.498178166
304.498298004
304.498391464
304.498466134
304.498528066
304.498582311
304.49859388
300.339332755
301.016147156
301.628083163
302.149912356
302.581169395
302.931710177
303.214085249
303.440334466
303.620939191
303.764661119
303.878691245
303.968883796
304.039986034
304.095839709
304.139548744
304.173616722
304.200058764
304.220492641
304.236213056
304.248252394
304.257430474
304.26439538
304.269656943
304.273614192
304.276577777
304.278788242
304.280430836
304.281647452
304.282546189
304.283208967
304.283697537
304.284058203
304.284325493
304.284524993
304.284675519
304.284790794
304.284880786
304.284952875
304.285012903
304.285065648
304.285076924
300.314909884
300.94598263
301.521785761
302.017229329
302.429516938
302.766239931
303.038322083
303.256738122
303.431282278
303.57026172
303.680555765
303.767795341
303.836561832
303.890569848
303.932823772
303.965748085
303.991294535
304.011029906
304.026207852
304.037827752
304.046682968
304.053400451
304.058473241
304.062287081
304.065142169
304.067270873
304.068852074
304.070022735
304.07088716
304.071524359
304.071993866
304.072340305
304.072596937
304.072788403
304.072932827
304.07304344
304.073129876
304.073199286
304.073257291
304.073308414
304.07331935
300.292108334
300.879883811
301.420585369
301.889689148
302.282608424
302.604991469
302.866278381
303.076428409
303.244557346
303.378511183
303.48484647
303.568959594
303.635256121
303.687315218
303.72803499
303.759755433
303.784360659
303.803363112
303.817972776
303.829153979
303.837672041
303.844131564
303.849007852
303.85267265
303.855415162
303.857459165
303.858976868
303.860100077
303.860929129
303.86154
303.86198992
303.862321764
303.862567481
303.862750734
303.862888927
303.862994781
303.863077577
303.863144213
303.863200085
303.863249472
303.863260026
300.270725241
300.817419208
301.324040112
301.76693118
302.140169922
302.447756854
302.697791356
302.899272459
303.060651427
303.189310047
303.291473304
303.372293216
303.435990457
303.486001002
303.525110298
303.555568715
303.579188634
303.597424931
303.611441384
303.622165299
303.630332421
303.636523818
303.641196156
303.644706486
303.647332493
303.649288968
303.650741152
303.65181547
303.652608131
303.65319196
303.65362179
303.653938688
303.654173245
303.654348112
303.654479953
303.654580954
303.654660026
303.654723799
303.654777434
303.654824979
303.654835114
300.250588917
300.75820866
301.231743858
301.648610389
302.001930431
302.294325152
302.532693054
302.725131796
302.879446195
303.002553942
303.100341767
303.177708829
303.238682695
303.286548951
303.323974372
303.353114813
303.37570701
303.393145172
303.406544436
303.416793187
303.424596118
303.430509626
303.434970862
303.438321518
303.440827253
303.442693493
303.444078221
303.445102273
303.445857572
303.446413675
303.446822937
303.447124555
303.447347719
303.447514037
303.447639408
303.447735466
303.447810734
303.447871558
303.447922859
303.447968463
303.447978144
300.231552762
300.701915632
301.143322723
301.534397008
301.86762268
302.144483341
302.370811082
302.553862866
302.700818329
302.818133856
302.911353117
302.985115186
303.043247132
303.088877503
303.124548769
303.152317638
303.173841479
303.190450873
303.203209987
303.212966458
303.220392517
303.226018797
303.230262094
303.233448102
303.235829969
303.237603389
303.238918816
303.239891292
303.240608304
303.241136031
303.241524271
303.241810293
303.242021843
303.242179457
303.242298246
303.242389276
303.242460664
303.242518457
303.242567332
303.242610902
303.242620099
300.213490492
300.648240667
301.058431699
301.423975918
301.736983648
301.998017048
302.211969242
302.38531751
302.524639872
302.6359364
302.724404579
302.794417333
302.849594644
302.892901914
302.926752046
302.953098245
302.973514985
302.989266403
303.001363476
303.01061136
303.017648468
303.022978626
303.026997478
303.030014108
303.032268689
303.033946835
303.035191211
303.036110868
303.036788717
303.037287455
303.037654244
303.037924371
303.038124099
303.038272862
303.038384963
303.038470884
303.038538317
303.038593003
303.038639368
303.038680815
303.038689499
300.196292375
300.596915815
300.976751474
301.317045814
301.609754854
301.85471114
302.055988085
302.219343413
302.350778564
302.455844066
302.539389545
302.605516786
302.657632838
302.698534384
302.730499878
302.755374942
302.774647825
302.789513563
302.800927837
302.809651671
302.816288381
302.821313996
302.825102244
302.82794502
302.830069083
302.831649637
302.832821307
302.833686975
302.834324836
302.834794006
302.83513894
302.835392891
302.835580601
302.835720377
302.835825692
302.835906425
302.835969835
302.836021341
302.836065114
302.836104357
302.836112504
300.179862226
300.547699858
300.89798543
301.21331823
301.485682459
301.714350171
301.902685389
302.055784499
302.179098162
302.277735477
302.356197785
302.418311699
302.4672662
302.505684197
302.53570519
302.559063411
302.57715777
302.5911117
302.601823601
302.610008812
302.616234339
302.620947477
302.624499324
302.627164036
302.629154544
302.630635328
302.631732741
302.632543321
302.633140421
302.633579482
302.633902185
302.634139698
302.634315208
302.634445868
302.634544303
302.634619775
302.634679096
302.634727354
302.634768461
302.634805423
302.63481301
300.164114983
300.500374195
300.821856843
301.112516464
301.36451721
301.576718729
301.75187657
301.894481305
302.009458743
302.101485643
302.174715654
302.232697044
302.278396258
302.314257868
302.342278287
302.364076835
302.380960185
302.393977822
302.403969016
302.411601955
302.417406204
302.421799445
302.42510947
302.427592183
302.429446299
302.43082528
302.431846991
302.432601459
302.433157079
302.433565528
302.433865649
302.434086481
302.434249622
302.434371047
302.434462517
302.43453266
302.434587831
302.434632776
302.434671147
302.434705755
302.434712763
300.148974729
300.454739268
300.748106256
301.014374453
301.246014285
301.44160168
301.603375037
301.735271322
301.841717
301.926966201
301.9948263
302.048564799
302.090921745
302.124159288
302.150126995
302.170326034
302.185968155
302.19802673
302.207280166
302.214348149
302.219721739
302.223788192
302.226851365
302.229148432
302.230863527
302.232138824
302.233083492
302.233780904
302.234294379
302.234671753
302.234948969
302.235152896
302.235303513
302.235415594
302.235500019
302.235564771
302.235615733
302.235657306
302.235692875
302.235725062
302.235731474
300.134373046
300.410611418
300.676489053
300.918635641
301.129933048
301.308784356
301.45699251
301.577989316
301.675726537
301.754045679
301.816409892
301.86580414
301.904738773
301.935289893
301.959156816
301.977719606
301.992092627
302.003171142
302.011671104
302.018162441
302.023096737
302.026830059
302.029641752
302.03174982
302.033323479
302.034493365
302.035359765
302.035999254
302.036469977
302.036815851
302.037069868
302.037256687
302.037394638
302.037497276
302.037574582
302.037633885
302.037680586
302.037718732
302.037751438
302.03778114
302.037786941
300.120247644
300.367820115
300.606773216
300.825051882
301.016036788
301.178052692
301.312539305
301.422467646
301.511338155
301.582589748
301.639343844
301.684301649
301.719741024
301.747548828
301.769271084
301.786164078
301.799242553
301.809321842
301.817053989
301.822958021
301.827445148
301.830839562
301.833395565
301.835311582
301.836741613
301.837804519
301.838591539
301.83917232
301.839599742
301.839913733
301.840144286
301.840313813
301.84043897
301.840532076
301.840602198
301.840655999
301.840698392
301.84073306
301.840762845
301.840790001
301.840795182
300.106541172
300.326205479
300.538737281
300.733382428
300.904092453
301.04919337
301.169824627
301.268536584
301.34840017
301.412461509
301.463503072
301.503941537
301.535819947
301.560833139
301.580371141
301.595564073
301.607325048
301.616387825
301.623339231
301.628646356
301.632679225
301.635729535
301.638026061
301.639747291
301.641031724
301.641986248
301.642692891
301.643214264
301.643597893
301.64387966
301.644086513
301.644238585
301.644350836
301.644434329
301.644497209
301.644545462
301.644583503
301.644614646
301.644641458
301.644666011
301.644670565
300.093200204
300.285616086
300.472168547
300.643393058
300.793870453
300.921993978
301.028656878
301.116024672
301.186758748
301.243521804
301.288760269
301.324605897
301.352864989
301.375037976
301.392356524
301.405822484
301.416245552
301.424276461
301.430435648
301.435137342
301.438709671
301.441411273
301.443444974
301.444968994
301.446106093
301.446950995
301.447576385
301.448037733
301.448377139
301.448626384
301.448809331
301.448943805
301.449043051
301.449116863
301.44917245
301.449215113
301.449248764
301.449276341
301.449300131
301.449322026
301.44932595
300.080174345
300.245907052
300.406861581
300.554855423
300.685144594
300.796243257
300.88884404
300.964759125
301.026258298
301.075629572
301.114986228
301.146174984
301.170763848
301.190056822
301.205125178
301.216840666
301.225908019
301.232893664
301.238250627
301.242339471
301.245445792
301.247794686
301.249562654
301.250887368
301.251875629
301.252609839
301.25315322
301.253554013
301.253848828
301.254065294
301.254224158
301.254340913
301.25442707
301.254491142
301.254539393
301.25457643
301.254605657
301.254629632
301.254650355
301.254669538
301.254672836
300.067415465
300.206938455
300.342617139
300.467546716
300.577692199
300.671731487
300.750194158
300.814566338
300.866741951
300.908642281
300.942050222
300.968527554
300.989402765
301.005781755
301.018573686
301.028518659
301.036215112
301.042144081
301.046690306
301.050159992
301.052795666
301.054788461
301.056288236
301.05741187
301.058250026
301.058872644
301.059333382
301.059673176
301.059923089
301.060106564
301.060241198
301.060340134
301.060413134
301.060467416
301.060508295
301.060539678
301.060564452
301.060584792
301.060602408
301.060618825
301.060621506
300.054877071
300.168574234
300.279241668
300.381249772
300.471294551
300.548251093
300.612516004
300.665272542
300.708052161
300.742416465
300.769820469
300.79154127
300.80866688
300.82210376
300.832597551
300.840755426
300.847068428
300.851931301
300.855659769
300.858505104
300.860666316
300.86230023
300.863529799
300.864450906
300.865137923
300.865648218
300.866025798
300.866304234
300.866508998
300.86665931
300.866769598
300.866850635
300.866910423
300.866954878
300.866988356
300.86701406
300.867034359
300.867051037
300.867065508
300.867079104
300.867081188
300.042513875
300.130681806
300.216547647
300.295753778
300.365737751
300.425597565
300.47562001
300.516704668
300.550031486
300.576808402
300.598164726
300.615093199
300.628440663
300.638913096
300.647091514
300.653449141
300.658368756
300.662158083
300.665063254
300.667280149
300.668963902
300.670236755
300.671194542
300.671911994
300.672447071
300.672844477
300.673138503
300.673355307
300.673514732
300.673631752
300.673717605
300.673780683
300.673827218
300.673861817
300.673887873
300.673907881
300.673923686
300.67393668
300.673947973
300.673958688
300.673960205
300.030281655
300.09313286
300.154355121
300.210855781
300.260814191
300.303570851
300.339319572
300.368691531
300.392523628
300.41167501
300.426951038
300.439060456
300.448608447
300.456099757
300.461949943
300.466497529
300.470016367
300.472726622
300.474804396
300.476389834
300.477593923
300.478504117
300.479188974
300.47970195
300.480084506
300.480368615
300.480578804
300.48073378
300.480847732
300.48093137
300.480992728
300.481037805
300.481071059
300.481095783
300.481114402
300.481128701
300.481139999
300.481149292
300.481157381
300.481165146
300.48116614
300.018137633
300.055806021
300.09249493
300.126363256
300.156324839
300.181977381
300.2034329
300.221065453
300.235374832
300.246875028
300.256048731
300.263321024
300.269055118
300.273554036
300.277067319
300.279798271
300.281911372
300.283538858
300.284786502
300.285738478
300.286461445
300.28700793
300.287419104
300.287727073
300.287956732
300.288127285
300.288253457
300.288346481
300.288414879
300.288465078
300.288501903
300.288528957
300.288548914
300.288563751
300.288574925
300.288583507
300.288590288
300.288595869
300.288600731
300.28860547
300.288606
300.006041664
300.018592509
300.030814362
300.042098013
300.052082648
300.060632975
300.067785619
300.073664489
300.078435789
300.0822706
300.085329726
300.087754831
300.089666999
300.091167263
300.092338835
300.093249512
300.093954147
300.094496839
300.094912865
300.095230293
300.095471357
300.095653571
300.095790665
300.095893347
300.095969917
300.096026779
300.096068844
300.096099857
300.096122659
300.096139394
300.096151671
300.096160689
300.096167342
300.096172288
300.096176013
300.096178873
300.096181134
300.096182995
300.096184618
300.096186234
300.09618638
)
;

boundaryField
{
    in
    {
        type            fixedValue;
        value           uniform 300;
    }
    out
    {
        type            zeroGradient;
    }
    top
    {
        type            fixedValue;
        value           uniform 300;
    }
    bottom
    {
        type            fixedGradient;
        gradient        nonuniform List<scalar> 
41
(
24.1420819392
18.529582761
13.7689419868
12.1065510981
11.5532745698
11.1497230108
10.8970713411
10.7373925946
10.6308606252
10.5595684741
10.5119311368
10.4802946809
10.4596091364
10.446428272
10.4383666956
10.4337620545
10.4314523472
10.4306264739
10.4307219152
10.4313535127
10.4322619394
10.4332766973
10.4342907806
10.4352417307
10.4360962244
10.4368396954
10.4374707456
10.4379968789
10.4384298718
10.4387822615
10.4390660312
10.4392926913
10.4394738816
10.4396213585
10.4397456075
10.4398630622
10.4400474166
10.44014424
10.4399198484
10.4396891005
10.4396991866
)
;
    }
    frontback
    {
        type            empty;
    }
}


// ************************************************************************* //
