/*--------------------------------*- C++ -*----------------------------------*\
| =========                 |                                                 |
| \\      /  F ield         | OpenFOAM: The Open Source CFD Toolbox           |
|  \\    /   O peration     | Version:  2112                                  |
|   \\  /    A nd           | Website:  www.openfoam.com                      |
|    \\/     M anipulation  |                                                 |
\*---------------------------------------------------------------------------*/
FoamFile
{
    version     2.0;
    format      ascii;
    arch        "LSB;label=32;scalar=64";
    class       volVectorField;
    location    "0.6";
    object      UxB;
}
// * * * * * * * * * * * * * * * * * * * * * * * * * * * * * * * * * * * * * //

dimensions      [1 1 -3 0 0 -1 0];

internalField   nonuniform List<vector> 
1681
(
(0 0 0.113095983387)
(0 0 0.105593732518)
(0 0 0.0753206982731)
(0 0 0.0773212181492)
(-0 0 0.0747911180019)
(0 0 0.0756236077101)
(-0 0 0.0753165684951)
(0 0 0.0755320396142)
(-0 0 0.0754759289835)
(0 0 0.0755201603524)
(-0 0 0.0755057850223)
(0 0 0.0755140984367)
(-0 0 0.0755103863574)
(0 0 0.0755120175325)
(-0 0 0.0755111499924)
(0 0 0.0755115037412)
(-0 0 0.0755113156438)
(0 0 0.0755113969244)
(-0 0 0.0755113570498)
(0 0 0.0755113756954)
(-0 0 0.0755113671063)
(0 0 0.0755113712798)
(-0 0 0.0755113693842)
(0 0 0.0755113703015)
(-0 0 0.0755113698781)
(0 0 0.0755113700785)
(-0 0 0.075511369984)
(0 0 0.0755113700283)
(-0 0 0.0755113700077)
(0 0 0.0755113700175)
(-0 0 0.0755113700128)
(-0 0 0.075511370015)
(-0 0 0.0755113700141)
(-0 0 0.0755113700143)
(-0 0 0.075511370014)
(-0 0 0.0755113700142)
(0 0 0.0755113700141)
(0 0 0.0755113700141)
(-0 0 0.0755113700139)
(-0 0 0.0755113700137)
(0 0 0.0755113700135)
(0 0 0.261383904086)
(0 0 0.258090326559)
(0 0 0.195428690371)
(0 0 0.198566141103)
(-0 0 0.192444659648)
(0 0 0.194183761026)
(-0 0 0.193468050437)
(0 0 0.193953540531)
(-0 0 0.193830981331)
(0 0 0.193933118062)
(-0 0 0.193901870063)
(0 0 0.193921022143)
(-0 0 0.193912774816)
(0 0 0.193916471397)
(-0 0 0.193914512433)
(0 0 0.193915304382)
(-0 0 0.193914877234)
(0 0 0.193915059063)
(-0 0 0.193914968703)
(0 0 0.193915010605)
(-0 0 0.193914991228)
(0 0 0.193915000643)
(-0 0 0.193914996378)
(0 0 0.19391499845)
(-0 0 0.193914997497)
(0 0 0.19391499795)
(-0 0 0.193914997737)
(0 0 0.193914997837)
(-0 0 0.193914997791)
(0 0 0.193914997813)
(-0 0 0.193914997802)
(0 0 0.193914997807)
(-0 0 0.193914997805)
(-0 0 0.193914997805)
(0 0 0.193914997805)
(0 0 0.193914997805)
(0 0 0.193914997805)
(-0 0 0.193914997805)
(-0 0 0.193914997804)
(-0 0 0.193914997804)
(0 0 0.193914997804)
(0 0 0.357968267371)
(0 0 0.367129584676)
(0 0 0.290113505541)
(0 0 0.293525474847)
(0 0 0.284927588057)
(0 0 0.287143391872)
(-0 0 0.286138419123)
(-0 0 0.28679105745)
(-0 0 0.286626002728)
(0 0 0.286766275546)
(-0 0 0.286724769553)
(0 0 0.286751171953)
(-0 0 0.28674010483)
(0 0 0.286745159927)
(-0 0 0.286742502834)
(0 0 0.286743576173)
(-0 0 0.286742993737)
(0 0 0.286743239579)
(-0 0 0.286743116363)
(0 0 0.286743173134)
(-0 0 0.286743146777)
(0 0 0.286743159566)
(-0 0 0.286743153776)
(0 0 0.286743156593)
(-0 0 0.2867431553)
(0 0 0.286743155916)
(-0 0 0.286743155627)
(0 0 0.286743155763)
(-0 0 0.2867431557)
(0 0 0.28674315573)
(-0 0 0.286743155715)
(0 0 0.286743155722)
(-0 0 0.286743155719)
(0 0 0.28674315572)
(0 0 0.286743155719)
(0 0 0.286743155719)
(-0 0 0.286743155719)
(-0 0 0.286743155719)
(-0 0 0.286743155718)
(-0 0 0.286743155718)
(-0 0 0.286743155718)
(0 0 0.420240366816)
(0 0 0.444346484801)
(0 0 0.364026239151)
(0 0 0.367747655369)
(0 0 0.357580303506)
(0 0 0.360039120355)
(-0 0 0.358822299905)
(-0 0 0.359574404689)
(-0 0 0.359379174161)
(-0 0 0.359544091939)
(-0 0 0.359495959637)
(0 0 0.359527257194)
(-0 0 0.359514404508)
(0 0 0.359520383835)
(-0 0 0.359517276817)
(0 0 0.35951853805)
(-0 0 0.359517853523)
(0 0 0.359518141356)
(-0 0 0.359517996313)
(0 0 0.359518062796)
(-0 0 0.359518031803)
(0 0 0.359518046804)
(-0 0 0.359518040007)
(0 0 0.359518043315)
(-0 0 0.359518041799)
(0 0 0.359518042523)
(-0 0 0.359518042184)
(0 0 0.359518042343)
(-0 0 0.359518042269)
(0 0 0.359518042304)
(-0 0 0.359518042287)
(0 0 0.359518042295)
(-0 0 0.359518042291)
(0 0 0.359518042292)
(0 0 0.359518042291)
(0 0 0.359518042291)
(-0 0 0.359518042291)
(-0 0 0.359518042291)
(-0 0 0.35951804229)
(-0 0 0.35951804229)
(-0 0 0.35951804229)
(0 0 0.459578278105)
(0 0 0.498235703437)
(0 0 0.421225242678)
(0 0 0.42563143481)
(0 0 0.414619801264)
(0 0 0.417204950432)
(-0 0 0.415829958648)
(-0 0 0.416636541601)
(-0 0 0.416417041929)
(-0 0 0.416597128592)
(-0 0 0.416544263895)
(0 0 0.416578855556)
(-0 0 0.416564838046)
(0 0 0.416571468983)
(-0 0 0.416568071009)
(0 0 0.41656946416)
(-0 0 0.41656871205)
(0 0 0.416569028555)
(-0 0 0.416568868723)
(0 0 0.416568941718)
(-0 0 0.416568907552)
(0 0 0.416568924034)
(-0 0 0.41656891655)
(0 0 0.416568920189)
(-0 0 0.416568918521)
(0 0 0.416568919318)
(-0 0 0.416568918945)
(0 0 0.41656891912)
(-0 0 0.416568919038)
(0 0 0.416568919077)
(-0 0 0.416568919059)
(0 0 0.416568919067)
(-0 0 0.416568919063)
(-0 0 0.416568919065)
(0 0 0.416568919063)
(-0 0 0.416568919064)
(0 0 0.416568919063)
(-0 0 0.416568919063)
(-0 0 0.416568919062)
(-0 0 0.416568919062)
(-0 0 0.416568919062)
(0 0 0.483609230606)
(0 0 0.53511087257)
(0 0 0.465114573166)
(0 0 0.470660289283)
(0 0 0.459370490514)
(0 0 0.462035273556)
(-0 0 0.460541605193)
(-0 0 0.461372916778)
(-0 0 0.461131519309)
(-0 0 0.461320002543)
(-0 0 0.461263266238)
(0 0 0.461300034109)
(-0 0 0.461285213878)
(0 0 0.461292323001)
(-0 0 0.461288736057)
(0 0 0.461290228031)
(-0 0 0.461289430959)
(0 0 0.461289768194)
(-0 0 0.461289598105)
(0 0 0.461289675637)
(-0 0 0.461289639216)
(0 0 0.461289656717)
(-0 0 0.461289648743)
(0 0 0.461289652611)
(-0 0 0.461289650837)
(0 0 0.461289651684)
(-0 0 0.461289651288)
(0 0 0.461289651474)
(-0 0 0.461289651387)
(0 0 0.461289651428)
(-0 0 0.461289651409)
(0 0 0.461289651418)
(-0 0 0.461289651413)
(-0 0 0.461289651415)
(0 0 0.461289651414)
(-0 0 0.461289651414)
(-0 0 0.461289651413)
(-0 0 0.461289651413)
(-0 0 0.461289651413)
(-0 0 0.461289651412)
(-0 0 0.461289651412)
(0 0 0.497510419186)
(0 0 0.559694654199)
(0 0 0.498496403255)
(0 0 0.505587452907)
(0 0 0.494451712954)
(0 0 0.497189205407)
(-0 0 0.495607663335)
(-0 0 0.496444228531)
(-0 0 0.496181518434)
(-0 0 0.496373478343)
(-0 0 0.496313145619)
(-0 0 0.4963512848)
(-0 0 0.496335864548)
(0 0 0.496343338652)
(-0 0 0.496339628407)
(0 0 0.496341199786)
(-0 0 0.496340372813)
(0 0 0.496340726108)
(-0 0 0.496340548731)
(0 0 0.496340629581)
(-0 0 0.496340591486)
(0 0 0.496340609713)
(-0 0 0.496340601371)
(0 0 0.496340605404)
(-0 0 0.49634060355)
(0 0 0.496340604434)
(-0 0 0.496340604021)
(0 0 0.496340604216)
(-0 0 0.496340604125)
(0 0 0.496340604168)
(-0 0 0.496340604147)
(0 0 0.496340604157)
(0 0 0.496340604152)
(-0 0 0.496340604154)
(0 0 0.496340604152)
(0 0 0.496340604153)
(-0 0 0.496340604152)
(-0 0 0.496340604152)
(-0 0 0.496340604152)
(-0 0 0.496340604151)
(-0 0 0.496340604151)
(0 0 0.504792971157)
(0 0 0.575495188144)
(0 0 0.523651237752)
(0 0 0.532589119026)
(0 0 0.521926940864)
(0 0 0.524750303191)
(-0 0 0.523105927359)
(-0 0 0.523935205555)
(-0 0 0.523651028289)
(-0 0 0.523842851243)
(-0 0 0.523778896789)
(-0 0 0.523817810065)
(-0 0 0.523801897624)
(0 0 0.523809659665)
(0 0 0.52380586876)
(0 0 0.523807508026)
(-0 0 0.523806661393)
(0 0 0.523807028013)
(-0 0 0.523806845344)
(0 0 0.523806928758)
(-0 0 0.523806889364)
(0 0 0.523806908127)
(-0 0 0.523806899496)
(0 0 0.52380690365)
(-0 0 0.523806901734)
(0 0 0.523806902647)
(-0 0 0.52380690222)
(0 0 0.523806902421)
(-0 0 0.523806902327)
(0 0 0.523806902372)
(-0 0 0.52380690235)
(0 0 0.523806902361)
(-0 0 0.523806902356)
(-0 0 0.523806902357)
(-0 0 0.523806902356)
(-0 0 0.523806902356)
(0 0 0.523806902356)
(-0 0 0.523806902356)
(-0 0 0.523806902355)
(-0 0 0.523806902355)
(0 0 0.523806902355)
(0 0 0.507830240926)
(0 0 0.585098433527)
(0 0 0.542416369482)
(0 0 0.553385431115)
(0 0 0.543421215904)
(0 0 0.546351311264)
(-0 0 0.544664814029)
(-0 0 0.545478983099)
(-0 0 0.545173036768)
(-0 0 0.54536207131)
(-0 0 0.545294345797)
(-0 0 0.545333581435)
(-0 0 0.54531723009)
(0 0 0.545325224882)
(0 0 0.545321381266)
(0 0 0.545323081304)
(0 0 0.54532222213)
(0 0 0.545322600445)
(-0 0 0.545322413869)
(0 0 0.545322499371)
(-0 0 0.545322458929)
(0 0 0.545322478104)
(-0 0 0.545322469233)
(0 0 0.54532247348)
(-0 0 0.545322471514)
(0 0 0.545322472449)
(-0 0 0.545322472012)
(0 0 0.545322472218)
(-0 0 0.545322472121)
(0 0 0.545322472167)
(-0 0 0.545322472145)
(0 0 0.545322472155)
(-0 0 0.545322472151)
(-0 0 0.545322472152)
(-0 0 0.545322472151)
(-0 0 0.545322472151)
(0 0 0.54532247215)
(-0 0 0.54532247215)
(-0 0 0.54532247215)
(-0 0 0.54532247215)
(0 0 0.54532247215)
(0 0 0.508222045987)
(0 0 0.590400234595)
(0 0 0.556258688846)
(0 0 0.569334973104)
(0 0 0.560213582718)
(0 0 0.563271565786)
(-0 0 0.561560022887)
(-0 0 0.562354508764)
(-0 0 0.562026661164)
(-0 0 0.562210998636)
(-0 0 0.562139335482)
(-0 0 0.562178550131)
(-0 0 0.562161784185)
(0 0 0.56216997004)
(0 0 0.56216609222)
(0 0 0.562167848196)
(0 0 0.562166981516)
(0 0 0.5621673705)
(-0 0 0.56216718101)
(0 0 0.562167268285)
(-0 0 0.562167226974)
(0 0 0.562167246475)
(-0 0 0.562167237399)
(0 0 0.562167241719)
(-0 0 0.56216723971)
(0 0 0.562167240663)
(-0 0 0.562167240217)
(0 0 0.562167240427)
(-0 0 0.562167240329)
(0 0 0.562167240375)
(-0 0 0.562167240353)
(0 0 0.562167240364)
(-0 0 0.562167240359)
(-0 0 0.562167240361)
(-0 0 0.562167240359)
(-0 0 0.56216724036)
(0 0 0.562167240359)
(-0 0 0.562167240359)
(-0 0 0.562167240358)
(-0 0 0.562167240358)
(0 0 0.562167240358)
(0 0 0.507042509869)
(0 0 0.592783716815)
(0 0 0.566340322173)
(0 0 0.581509247351)
(0 0 0.573309942527)
(0 0 0.576513097937)
(-0 0 0.574790312759)
(-0 0 0.575562804442)
(-0 0 0.575213250232)
(-0 0 0.575391580423)
(-0 0 0.575315858934)
(-0 0 0.575354795209)
(-0 0 0.575337626011)
(0 0 0.575345969892)
(0 0 0.575342070227)
(0 0 0.575343878342)
(0 0 0.575343007755)
(0 0 0.575343406676)
(-0 0 0.575343215006)
(0 0 0.575343303834)
(-0 0 0.575343261787)
(0 0 0.575343281553)
(-0 0 0.575343272297)
(0 0 0.575343276676)
(-0 0 0.57534327463)
(0 0 0.575343275597)
(-0 0 0.575343275144)
(0 0 0.575343275358)
(-0 0 0.575343275258)
(0 0 0.575343275305)
(-0 0 0.575343275283)
(0 0 0.575343275293)
(0 0 0.575343275288)
(-0 0 0.57534327529)
(-0 0 0.575343275289)
(-0 0 0.575343275289)
(-0 0 0.575343275288)
(-0 0 0.575343275288)
(-0 0 0.575343275288)
(-0 0 0.575343275288)
(0 0 0.575343275288)
(0 0 0.505008101295)
(0 0 0.593252428189)
(0 0 0.573575727814)
(0 0 0.590751730867)
(0 0 0.583500460722)
(0 0 0.586860117879)
(-0 0 0.585136864716)
(-0 0 0.585886648181)
(-0 0 0.585515974484)
(-0 0 0.585687486394)
(-0 0 0.585607667434)
(-0 0 0.585646139879)
(-0 0 0.585628575764)
(0 0 0.585637050482)
(0 0 0.58563313727)
(0 0 0.585634994038)
(0 0 0.585634122111)
(0 0 0.585634530343)
(-0 0 0.585634337046)
(0 0 0.585634427262)
(-0 0 0.585634384581)
(0 0 0.585634404568)
(-0 0 0.585634395153)
(0 0 0.58563439958)
(-0 0 0.585634397501)
(0 0 0.58563439848)
(-0 0 0.585634398021)
(0 0 0.585634398238)
(-0 0 0.585634398136)
(0 0 0.585634398184)
(-0 0 0.585634398162)
(0 0 0.585634398172)
(0 0 0.585634398167)
(-0 0 0.585634398169)
(-0 0 0.585634398168)
(-0 0 0.585634398168)
(-0 0 0.585634398167)
(-0 0 0.585634398167)
(-0 0 0.585634398167)
(-0 0 0.585634398167)
(0 0 0.585634398167)
(0 0 0.502592180433)
(0 0 0.592529974227)
(0 0 0.578679941699)
(0 0 0.597724723374)
(0 0 0.591404746629)
(0 0 0.594925497873)
(-0 0 0.593209739931)
(-0 0 0.593937243814)
(-0 0 0.593546443821)
(-0 0 0.59371075336)
(-0 0 0.593626897397)
(-0 0 0.593664783072)
(-0 0 0.593646835362)
(0 0 0.593655417952)
(0 0 0.593651496766)
(0 0 0.593653398604)
(0 0 0.593652527126)
(0 0 0.593652944043)
(-0 0 0.593652749545)
(0 0 0.593652841008)
(-0 0 0.593652797782)
(0 0 0.593652817953)
(-0 0 0.593652808396)
(0 0 0.593652812862)
(-0 0 0.593652810754)
(0 0 0.593652811744)
(-0 0 0.593652811279)
(0 0 0.593652811498)
(-0 0 0.593652811396)
(0 0 0.593652811444)
(-0 0 0.593652811422)
(0 0 0.593652811433)
(0 0 0.593652811427)
(-0 0 0.593652811429)
(-0 0 0.593652811428)
(-0 0 0.593652811428)
(-0 0 0.593652811427)
(-0 0 0.593652811427)
(-0 0 0.593652811427)
(-0 0 0.593652811427)
(0 0 0.593652811427)
(0 0 0.50010345876)
(0 0 0.591134448978)
(0 0 0.582208505705)
(0 0 0.602946451006)
(0 0 0.597507346473)
(0 0 0.601187060324)
(-0 0 0.599484182291)
(-0 0 0.600190664741)
(-0 0 0.599781122253)
(-0 0 0.599938215551)
(-0 0 0.5998504892)
(-0 0 0.599887720643)
(-0 0 0.599869407055)
(0 0 0.599878077816)
(0 0 0.599874152366)
(0 0 0.599876095373)
(0 0 0.599875225528)
(0 0 0.599875650441)
(-0 0 0.599875455074)
(0 0 0.59987554765)
(-0 0 0.599875503956)
(0 0 0.599875524284)
(-0 0 0.5998755146)
(0 0 0.599875519099)
(-0 0 0.599875516965)
(0 0 0.599875517964)
(-0 0 0.599875517494)
(0 0 0.599875517715)
(-0 0 0.599875517612)
(0 0 0.599875517661)
(-0 0 0.599875517638)
(0 0 0.599875517649)
(0 0 0.599875517644)
(-0 0 0.599875517646)
(-0 0 0.599875517644)
(-0 0 0.599875517645)
(-0 0 0.599875517644)
(-0 0 0.599875517644)
(-0 0 0.599875517644)
(-0 0 0.599875517644)
(0 0 0.599875517644)
(0 0 0.497739842214)
(0 0 0.589433815614)
(0 0 0.584589977686)
(0 0 0.606820372454)
(0 0 0.60218555254)
(0 0 0.606015849474)
(-0 0 0.604328916034)
(-0 0 0.605016245621)
(-0 0 0.604589703626)
(-0 0 0.604739888963)
(-0 0 0.604648563825)
(-0 0 0.604685123057)
(-0 0 0.604666469389)
(0 0 0.604675211286)
(0 0 0.604671283982)
(0 0 0.604673263841)
(0 0 0.604672396323)
(0 0 0.604672828452)
(-0 0 0.604672632468)
(0 0 0.604672726028)
(-0 0 0.604672681935)
(0 0 0.604672702394)
(-0 0 0.6046726926)
(0 0 0.604672697126)
(-0 0 0.604672694969)
(0 0 0.604672695976)
(-0 0 0.604672695501)
(0 0 0.604672695725)
(-0 0 0.604672695621)
(0 0 0.60467269567)
(-0 0 0.604672695647)
(0 0 0.604672695658)
(-0 0 0.604672695652)
(-0 0 0.604672695655)
(-0 0 0.604672695653)
(0 0 0.604672695654)
(-0 0 0.604672695653)
(-0 0 0.604672695653)
(0 0 0.604672695653)
(0 0 0.604672695653)
(-0 0 0.604672695652)
(0 0 0.495625386505)
(0 0 0.587686898661)
(0 0 0.586152014036)
(0 0 0.609658219341)
(0 0 0.605731098956)
(0 0 0.609698076518)
(-0 0 0.608028115003)
(-0 0 0.608698614228)
(-0 0 0.608257134785)
(-0 0 0.608400998828)
(-0 0 0.608306445039)
(-0 0 0.608342357864)
(-0 0 0.608323398507)
(0 0 0.608332196741)
(0 0 0.60832826907)
(0 0 0.60833028102)
(0 0 0.608329416123)
(0 0 0.608329854582)
(-0 0 0.608329658174)
(0 0 0.608329752582)
(-0 0 0.608329708158)
(0 0 0.608329728724)
(-0 0 0.608329718837)
(0 0 0.608329723384)
(-0 0 0.608329721208)
(0 0 0.608329722221)
(-0 0 0.608329721743)
(0 0 0.608329721968)
(-0 0 0.608329721863)
(0 0 0.608329721913)
(0 0 0.60832972189)
(0 0 0.608329721901)
(-0 0 0.608329721895)
(-0 0 0.608329721897)
(-0 0 0.608329721896)
(0 0 0.608329721896)
(0 0 0.608329721896)
(-0 0 0.608329721896)
(0 0 0.608329721895)
(0 0 0.608329721896)
(-0 0 0.608329721895)
(0 0 0.49383562913)
(0 0 0.586073531295)
(0 0 0.587141981428)
(0 0 0.611697971396)
(0 0 0.608366969497)
(0 0 0.612452044694)
(-0 0 0.610798345411)
(-0 0 0.611454675714)
(-0 0 0.61100059509)
(-0 0 0.611138960883)
(-0 0 0.611041636931)
(-0 0 0.611076967095)
(-0 0 0.611057744731)
(0 0 0.611066586399)
(0 0 0.611062659182)
(0 0 0.611064698038)
(0 0 0.611063835726)
(0 0 0.611064279527)
(-0 0 0.611064082838)
(0 0 0.611064177953)
(-0 0 0.611064133261)
(0 0 0.611064153913)
(-0 0 0.611064143948)
(0 0 0.611064148513)
(-0 0 0.611064146321)
(0 0 0.611064147338)
(-0 0 0.611064146858)
(0 0 0.611064147084)
(-0 0 0.611064146978)
(0 0 0.611064147029)
(-0 0 0.611064147005)
(0 0 0.611064147016)
(-0 0 0.611064147011)
(-0 0 0.611064147013)
(-0 0 0.611064147012)
(0 0 0.611064147012)
(0 0 0.611064147011)
(-0 0 0.611064147011)
(0 0 0.611064147011)
(0 0 0.611064147011)
(-0 0 0.611064147011)
(0 0 0.492414884489)
(0 0 0.584716517623)
(0 0 0.58774295653)
(0 0 0.613117704604)
(0 0 0.610260267443)
(0 0 0.614441058893)
(-0 0 0.612801486232)
(-0 0 0.613446560352)
(-0 0 0.612982441479)
(-0 0 0.613116326747)
(-0 0 0.613016766566)
(-0 0 0.613051609602)
(-0 0 0.613032174325)
(0 0 0.613041048097)
(0 0 0.613037121673)
(0 0 0.613039181874)
(0 0 0.613038321847)
(0 0 0.613038769908)
(-0 0 0.613038573042)
(0 0 0.613038668716)
(-0 0 0.613038623817)
(0 0 0.613038644535)
(-0 0 0.613038634509)
(0 0 0.613038639087)
(-0 0 0.613038636882)
(0 0 0.613038637903)
(-0 0 0.61303863742)
(0 0 0.613038637648)
(-0 0 0.613038637541)
(0 0 0.613038637592)
(0 0 0.613038637569)
(0 0 0.61303863758)
(-0 0 0.613038637574)
(-0 0 0.613038637576)
(-0 0 0.613038637575)
(0 0 0.613038637575)
(-0 0 0.613038637575)
(0 0 0.613038637575)
(-0 0 0.613038637575)
(0 0 0.613038637574)
(-0 0 0.613038637574)
(0 0 0.491387937904)
(0 0 0.583697376263)
(0 0 0.58808584266)
(0 0 0.614046038533)
(0 0 0.611531875654)
(0 0 0.615783084172)
(-0 0 0.614154392964)
(-0 0 0.614791305126)
(-0 0 0.614319888487)
(-0 0 0.614450463494)
(-0 0 0.614349261571)
(-0 0 0.614383738258)
(-0 0 0.614364146296)
(0 0 0.614373042088)
(0 0 0.614369116456)
(0 0 0.614371192133)
(0 0 0.614370333885)
(0 0 0.614370785046)
(0 0 0.614370588076)
(0 0 0.614370684154)
(-0 0 0.614370639107)
(0 0 0.614370659873)
(-0 0 0.614370649803)
(0 0 0.61437065439)
(-0 0 0.614370652176)
(0 0 0.6143706532)
(-0 0 0.614370652715)
(0 0 0.614370652944)
(-0 0 0.614370652837)
(0 0 0.614370652888)
(-0 0 0.614370652864)
(0 0 0.614370652875)
(-0 0 0.61437065287)
(-0 0 0.614370652872)
(-0 0 0.614370652871)
(0 0 0.614370652871)
(-0 0 0.61437065287)
(0 0 0.61437065287)
(-0 0 0.61437065287)
(-0 0 0.61437065287)
(0 0 0.61437065287)
(0 0 0.490767780605)
(0 0 0.583067292113)
(0 0 0.588258192331)
(0 0 0.614569734196)
(0 0 0.612263454167)
(0 0 0.616557724045)
(-0 0 0.614935877536)
(-0 0 0.615567844987)
(-0 0 0.615091998517)
(-0 0 0.615220543226)
(-0 0 0.615118338285)
(-0 0 0.615152587734)
(-0 0 0.615132899881)
(0 0 0.615141808517)
(0 0 0.615137883447)
(0 0 0.615139968503)
(0 0 0.615139111381)
(0 0 0.615139564427)
(0 0 0.615139367403)
(0 0 0.615139463725)
(-0 0 0.61513941859)
(0 0 0.615139439384)
(-0 0 0.615139429288)
(0 0 0.61513943388)
(-0 0 0.615139431661)
(0 0 0.615139432686)
(-0 0 0.6151394322)
(0 0 0.615139432429)
(0 0 0.615139432322)
(0 0 0.615139432373)
(-0 0 0.61513943235)
(0 0 0.615139432361)
(-0 0 0.615139432355)
(-0 0 0.615139432358)
(-0 0 0.615139432356)
(-0 0 0.615139432357)
(0 0 0.615139432356)
(0 0 0.615139432356)
(-0 0 0.615139432355)
(0 0 0.615139432355)
(0 0 0.615139432355)
(-0 0 0.49056047075)
(-0 0 0.582854288633)
(0 0 0.588310196566)
(-0 0 0.614738848855)
(-0 0 0.612502173183)
(0 0 0.616810930531)
(0 0 0.615191418045)
(-0 0 0.615821729455)
(-0 0 0.615344397826)
(0 0 0.61547225838)
(0 0 0.615369716078)
(-0 0 0.615403888534)
(0 0 0.615384168401)
(0 0 0.615393081256)
(-0 0 0.615389156387)
(-0 0 0.615391244585)
(-0 0 0.615390387849)
(-0 0 0.615390841527)
(-0 0 0.615390644486)
(-0 0 0.61539074089)
(-0 0 0.615390695727)
(-0 0 0.615390716529)
(0 0 0.615390706424)
(0 0 0.615390711018)
(0 0 0.615390708797)
(0 0 0.615390709823)
(0 0 0.615390709337)
(0 0 0.615390709566)
(0 0 0.615390709459)
(0 0 0.61539070951)
(0 0 0.615390709486)
(0 0 0.615390709498)
(-0 0 0.615390709492)
(-0 0 0.615390709494)
(-0 0 0.615390709493)
(-0 0 0.615390709493)
(0 0 0.615390709493)
(0 0 0.615390709492)
(0 0 0.615390709492)
(0 0 0.615390709492)
(-0 0 0.615390709492)
(-0 0 0.49076778064)
(-0 0 0.583067292176)
(-0 0 0.588258192316)
(-0 0 0.614569734149)
(-0 0 0.612263454184)
(-0 0 0.616557724064)
(0 0 0.614935877524)
(0 0 0.615567844981)
(0 0 0.615091998523)
(0 0 0.615220543228)
(0 0 0.615118338282)
(0 0 0.615152587733)
(0 0 0.615132899882)
(-0 0 0.615141808516)
(-0 0 0.615137883446)
(-0 0 0.615139968503)
(-0 0 0.615139111381)
(-0 0 0.615139564426)
(-0 0 0.615139367403)
(-0 0 0.615139463725)
(0 0 0.615139418591)
(-0 0 0.615139439384)
(0 0 0.615139429288)
(-0 0 0.61513943388)
(0 0 0.615139431661)
(-0 0 0.615139432686)
(0 0 0.6151394322)
(-0 0 0.615139432429)
(0 0 0.615139432322)
(0 0 0.615139432373)
(-0 0 0.615139432349)
(-0 0 0.615139432361)
(-0 0 0.615139432355)
(-0 0 0.615139432358)
(-0 0 0.615139432356)
(-0 0 0.615139432357)
(-0 0 0.615139432356)
(0 0 0.615139432356)
(0 0 0.615139432356)
(0 0 0.615139432355)
(0 0 0.615139432355)
(-0 0 0.491387937976)
(-0 0 0.583697376388)
(-0 0 0.588085842628)
(-0 0 0.614046038442)
(-0 0 0.611531875689)
(-0 0 0.615783084207)
(0 0 0.614154392941)
(0 0 0.614791305113)
(0 0 0.614319888498)
(0 0 0.614450463497)
(0 0 0.614349261565)
(0 0 0.614383738258)
(0 0 0.614364146298)
(-0 0 0.614373042087)
(-0 0 0.614369116454)
(-0 0 0.614371192133)
(-0 0 0.614370333885)
(-0 0 0.614370785046)
(-0 0 0.614370588076)
(-0 0 0.614370684154)
(0 0 0.614370639108)
(-0 0 0.614370659873)
(0 0 0.614370649803)
(-0 0 0.61437065439)
(0 0 0.614370652176)
(-0 0 0.6143706532)
(0 0 0.614370652715)
(-0 0 0.614370652944)
(0 0 0.614370652837)
(0 0 0.614370652887)
(0 0 0.614370652864)
(-0 0 0.614370652875)
(-0 0 0.61437065287)
(-0 0 0.614370652872)
(-0 0 0.614370652871)
(-0 0 0.614370652871)
(-0 0 0.61437065287)
(0 0 0.61437065287)
(0 0 0.61437065287)
(0 0 0.61437065287)
(0 0 0.61437065287)
(-0 0 0.492414884604)
(-0 0 0.584716517806)
(-0 0 0.587742956475)
(-0 0 0.613117704477)
(-0 0 0.610260267494)
(-0 0 0.614441058942)
(0 0 0.612801486198)
(0 0 0.613446560334)
(0 0 0.612982441495)
(0 0 0.613116326751)
(0 0 0.613016766557)
(0 0 0.613051609602)
(0 0 0.613032174328)
(-0 0 0.613041048096)
(-0 0 0.613037121671)
(-0 0 0.613039181875)
(-0 0 0.613038321848)
(-0 0 0.613038769908)
(0 0 0.613038573043)
(-0 0 0.613038668716)
(0 0 0.613038623817)
(-0 0 0.613038644535)
(0 0 0.613038634509)
(-0 0 0.613038639087)
(0 0 0.613038636882)
(-0 0 0.613038637903)
(0 0 0.61303863742)
(-0 0 0.613038637648)
(0 0 0.613038637542)
(-0 0 0.613038637592)
(0 0 0.613038637568)
(-0 0 0.61303863758)
(-0 0 0.613038637574)
(-0 0 0.613038637577)
(-0 0 0.613038637575)
(-0 0 0.613038637576)
(-0 0 0.613038637575)
(0 0 0.613038637575)
(0 0 0.613038637575)
(0 0 0.613038637574)
(0 0 0.613038637574)
(-0 0 0.493835629296)
(-0 0 0.586073531532)
(-0 0 0.587141981344)
(-0 0 0.61169797124)
(-0 0 0.608366969565)
(-0 0 0.612452044753)
(0 0 0.610798345368)
(0 0 0.611454675693)
(0 0 0.61100059511)
(0 0 0.611138960887)
(0 0 0.611041636921)
(0 0 0.611076967095)
(0 0 0.611057744734)
(-0 0 0.611066586397)
(-0 0 0.611062659179)
(-0 0 0.611064698038)
(-0 0 0.611063835727)
(-0 0 0.611064279526)
(0 0 0.611064082839)
(-0 0 0.611064177954)
(0 0 0.611064133261)
(-0 0 0.611064153914)
(0 0 0.611064143949)
(-0 0 0.611064148513)
(0 0 0.611064146321)
(-0 0 0.611064147338)
(0 0 0.611064146858)
(-0 0 0.611064147084)
(0 0 0.611064146978)
(-0 0 0.611064147028)
(0 0 0.611064147005)
(-0 0 0.611064147016)
(-0 0 0.611064147011)
(-0 0 0.611064147013)
(-0 0 0.611064147012)
(-0 0 0.611064147012)
(-0 0 0.611064147011)
(0 0 0.611064147011)
(0 0 0.611064147011)
(0 0 0.611064147011)
(-0 0 0.611064147011)
(-0 0 0.495625386733)
(-0 0 0.587686898945)
(-0 0 0.586152013915)
(-0 0 0.60965821917)
(-0 0 0.605731099041)
(-0 0 0.609698076581)
(0 0 0.608028114952)
(0 0 0.608698614207)
(0 0 0.608257134808)
(0 0 0.608400998831)
(0 0 0.608306445028)
(0 0 0.608342357864)
(0 0 0.60832339851)
(-0 0 0.608332196738)
(-0 0 0.608328269067)
(-0 0 0.608330281021)
(-0 0 0.608329416124)
(-0 0 0.608329854582)
(0 0 0.608329658175)
(-0 0 0.608329752583)
(0 0 0.608329708159)
(-0 0 0.608329728725)
(0 0 0.608329718837)
(-0 0 0.608329723385)
(0 0 0.608329721209)
(-0 0 0.608329722221)
(0 0 0.608329721743)
(-0 0 0.608329721968)
(0 0 0.608329721863)
(-0 0 0.608329721913)
(0 0 0.608329721889)
(-0 0 0.6083297219)
(-0 0 0.608329721895)
(-0 0 0.608329721898)
(-0 0 0.608329721896)
(-0 0 0.608329721896)
(-0 0 0.608329721896)
(0 0 0.608329721896)
(-0 0 0.608329721895)
(0 0 0.608329721895)
(0 0 0.608329721895)
(-0 0 0.49773984251)
(-0 0 0.589433815937)
(-0 0 0.584589977519)
(-0 0 0.606820372281)
(-0 0 0.60218555264)
(-0 0 0.606015849535)
(0 0 0.604328915978)
(0 0 0.605016245602)
(0 0 0.60458970365)
(0 0 0.604739888965)
(0 0 0.604648563813)
(0 0 0.604685123058)
(0 0 0.604666469392)
(-0 0 0.604675211283)
(-0 0 0.604671283979)
(-0 0 0.604673263841)
(-0 0 0.604672396323)
(-0 0 0.604672828452)
(0 0 0.604672632468)
(-0 0 0.604672726028)
(0 0 0.604672681936)
(-0 0 0.604672702394)
(0 0 0.604672692601)
(-0 0 0.604672697127)
(0 0 0.60467269497)
(-0 0 0.604672695976)
(0 0 0.604672695501)
(-0 0 0.604672695725)
(0 0 0.60467269562)
(-0 0 0.60467269567)
(0 0 0.604672695647)
(-0 0 0.604672695658)
(-0 0 0.604672695652)
(-0 0 0.604672695655)
(-0 0 0.604672695654)
(-0 0 0.604672695654)
(-0 0 0.604672695653)
(-0 0 0.604672695653)
(-0 0 0.604672695653)
(0 0 0.604672695653)
(0 0 0.604672695652)
(-0 0 0.500103459133)
(-0 0 0.591134449331)
(-0 0 0.582208505485)
(-0 0 0.602946450844)
(-0 0 0.597507346586)
(-0 0 0.601187060377)
(0 0 0.599484182231)
(0 0 0.600190664724)
(0 0 0.599781122277)
(0 0 0.59993821555)
(0 0 0.599850489189)
(0 0 0.599887720644)
(0 0 0.599869407057)
(-0 0 0.599878077813)
(-0 0 0.599874152363)
(-0 0 0.599876095373)
(-0 0 0.599875225528)
(-0 0 0.599875650441)
(0 0 0.599875455074)
(-0 0 0.599875547651)
(0 0 0.599875503956)
(-0 0 0.599875524284)
(0 0 0.599875514601)
(-0 0 0.5998755191)
(0 0 0.599875516965)
(-0 0 0.599875517964)
(0 0 0.599875517494)
(-0 0 0.599875517715)
(0 0 0.599875517612)
(-0 0 0.599875517661)
(0 0 0.599875517638)
(-0 0 0.599875517648)
(-0 0 0.599875517643)
(-0 0 0.599875517646)
(-0 0 0.599875517645)
(-0 0 0.599875517645)
(-0 0 0.599875517644)
(-0 0 0.599875517644)
(-0 0 0.599875517644)
(-0 0 0.599875517644)
(0 0 0.599875517643)
(-0 0 0.502592180887)
(-0 0 0.592529974599)
(-0 0 0.578679941422)
(-0 0 0.597724723238)
(-0 0 0.591404746754)
(-0 0 0.594925497913)
(0 0 0.59320973987)
(0 0 0.593937243804)
(0 0 0.593546443844)
(0 0 0.593710753357)
(0 0 0.593626897387)
(0 0 0.593664783074)
(0 0 0.593646835363)
(-0 0 0.593655417948)
(-0 0 0.593651496763)
(-0 0 0.593653398604)
(-0 0 0.593652527126)
(-0 0 0.593652944043)
(0 0 0.593652749546)
(-0 0 0.593652841008)
(0 0 0.593652797782)
(-0 0 0.593652817954)
(0 0 0.593652808397)
(-0 0 0.593652812863)
(0 0 0.593652810755)
(-0 0 0.593652811744)
(0 0 0.593652811279)
(-0 0 0.593652811498)
(0 0 0.593652811396)
(-0 0 0.593652811444)
(0 0 0.593652811421)
(-0 0 0.593652811432)
(0 0 0.593652811427)
(-0 0 0.593652811429)
(-0 0 0.593652811428)
(-0 0 0.593652811428)
(0 0 0.593652811427)
(-0 0 0.593652811428)
(-0 0 0.593652811427)
(-0 0 0.593652811427)
(-0 0 0.593652811427)
(-0 0 0.505008101832)
(-0 0 0.593252428569)
(-0 0 0.573575727476)
(-0 0 0.59075173077)
(-0 0 0.583500460855)
(-0 0 0.586860117901)
(0 0 0.585136864657)
(0 0 0.585886648177)
(0 0 0.585515974503)
(0 0 0.585687486389)
(0 0 0.585607667426)
(0 0 0.585646139881)
(0 0 0.585628575764)
(-0 0 0.585637050478)
(-0 0 0.585633137268)
(-0 0 0.585634994038)
(-0 0 0.585634122111)
(-0 0 0.585634530343)
(0 0 0.585634337047)
(-0 0 0.585634427263)
(0 0 0.585634384582)
(-0 0 0.585634404569)
(0 0 0.585634395154)
(-0 0 0.585634399581)
(0 0 0.585634397501)
(-0 0 0.585634398481)
(0 0 0.585634398021)
(-0 0 0.585634398238)
(0 0 0.585634398136)
(-0 0 0.585634398184)
(0 0 0.585634398161)
(-0 0 0.585634398172)
(0 0 0.585634398167)
(-0 0 0.585634398169)
(-0 0 0.585634398168)
(-0 0 0.585634398168)
(-0 0 0.585634398167)
(-0 0 0.585634398167)
(0 0 0.585634398167)
(-0 0 0.585634398167)
(-0 0 0.585634398167)
(-0 0 0.507042510485)
(-0 0 0.592783717188)
(-0 0 0.566340321775)
(-0 0 0.581509247302)
(-0 0 0.573309942662)
(-0 0 0.576513097937)
(0 0 0.574790312705)
(0 0 0.575562804447)
(0 0 0.575213250247)
(0 0 0.575391580414)
(0 0 0.575315858929)
(0 0 0.575354795211)
(0 0 0.575337626009)
(-0 0 0.575345969888)
(-0 0 0.575342070226)
(-0 0 0.575343878341)
(-0 0 0.575343007755)
(-0 0 0.575343406677)
(0 0 0.575343215007)
(-0 0 0.575343303835)
(0 0 0.575343261787)
(-0 0 0.575343281553)
(0 0 0.575343272298)
(-0 0 0.575343276677)
(0 0 0.57534327463)
(-0 0 0.575343275597)
(0 0 0.575343275144)
(-0 0 0.575343275358)
(0 0 0.575343275257)
(-0 0 0.575343275305)
(0 0 0.575343275282)
(-0 0 0.575343275293)
(0 0 0.575343275288)
(0 0 0.57534327529)
(-0 0 0.575343275289)
(0 0 0.575343275289)
(-0 0 0.575343275288)
(-0 0 0.575343275288)
(0 0 0.575343275288)
(-0 0 0.575343275288)
(-0 0 0.575343275288)
(-0 0 0.508222046675)
(-0 0 0.59040023495)
(-0 0 0.556258688392)
(-0 0 0.569334973113)
(-0 0 0.560213582853)
(-0 0 0.563271565761)
(0 0 0.56156002284)
(0 0 0.562354508777)
(0 0 0.562026661172)
(0 0 0.562210998625)
(0 0 0.56213933548)
(0 0 0.562178550133)
(0 0 0.562161784182)
(-0 0 0.562169970036)
(-0 0 0.562166092219)
(-0 0 0.562167848195)
(-0 0 0.562166981515)
(-0 0 0.562167370501)
(0 0 0.562167181012)
(-0 0 0.562167268286)
(0 0 0.562167226975)
(-0 0 0.562167246475)
(0 0 0.5621672374)
(-0 0 0.56216724172)
(0 0 0.562167239711)
(-0 0 0.562167240663)
(0 0 0.562167240217)
(-0 0 0.562167240427)
(0 0 0.562167240328)
(-0 0 0.562167240375)
(0 0 0.562167240353)
(-0 0 0.562167240363)
(0 0 0.562167240358)
(0 0 0.56216724036)
(0 0 0.562167240359)
(0 0 0.562167240359)
(0 0 0.562167240359)
(-0 0 0.562167240359)
(-0 0 0.562167240358)
(-0 0 0.562167240358)
(-0 0 0.562167240359)
(-0 0 0.507830241674)
(-0 0 0.585098433853)
(-0 0 0.542416368981)
(-0 0 0.553385431187)
(-0 0 0.543421216033)
(-0 0 0.546351311213)
(0 0 0.544664813993)
(0 0 0.545478983119)
(0 0 0.54517303677)
(0 0 0.545362071297)
(0 0 0.545294345798)
(0 0 0.545333581437)
(0 0 0.545317230085)
(-0 0 0.545325224878)
(-0 0 0.545321381265)
(-0 0 0.545323081303)
(-0 0 0.54532222213)
(-0 0 0.545322600446)
(0 0 0.545322413871)
(-0 0 0.545322499371)
(0 0 0.54532245893)
(-0 0 0.545322478104)
(0 0 0.545322469234)
(-0 0 0.545322473481)
(0 0 0.545322471515)
(-0 0 0.545322472449)
(0 0 0.545322472012)
(-0 0 0.545322472218)
(0 0 0.545322472121)
(-0 0 0.545322472166)
(0 0 0.545322472145)
(-0 0 0.545322472155)
(0 0 0.54532247215)
(0 0 0.545322472152)
(0 0 0.545322472151)
(-0 0 0.545322472151)
(-0 0 0.545322472151)
(-0 0 0.54532247215)
(-0 0 0.54532247215)
(-0 0 0.54532247215)
(0 0 0.54532247215)
(-0 0 0.504792971949)
(-0 0 0.575495188428)
(-0 0 0.523651237214)