/*--------------------------------*- C++ -*----------------------------------*\
| =========                 |                                                 |
| \\      /  F ield         | OpenFOAM: The Open Source CFD Toolbox           |
|  \\    /   O peration     | Version:  2112                                  |
|   \\  /    A nd           | Website:  www.openfoam.com                      |
|    \\/     M anipulation  |                                                 |
\*---------------------------------------------------------------------------*/
FoamFile
{
    version     2.0;
    format      ascii;
    arch        "LSB;label=32;scalar=64";
    class       surfaceScalarField;
    location    "10";
    object      phi;
}
// * * * * * * * * * * * * * * * * * * * * * * * * * * * * * * * * * * * * * //

dimensions      [1 0 -1 0 0 0 0];

oriented        oriented;

internalField   nonuniform List<scalar> 
23692
(
2.32972e-06
-2.73644e-09
2.33469e-06
-4.9643e-09
2.34164e-06
-6.95417e-09
2.35035e-06
-8.71023e-09
2.36064e-06
-1.02857e-08
2.37235e-06
-1.17129e-08
2.38536e-06
-1.30132e-08
2.39957e-06
-1.42036e-08
2.41487e-06
-1.52976e-08
2.43117e-06
-1.63058e-08
2.44841e-06
-1.72368e-08
2.46651e-06
-1.80979e-08
2.48541e-06
-1.88951e-08
2.50504e-06
-1.96337e-08
2.52536e-06
-2.03178e-08
2.54631e-06
-2.09514e-08
2.56785e-06
-2.15376e-08
2.58993e-06
-2.20793e-08
2.61251e-06
-2.25789e-08
2.63555e-06
-2.30386e-08
2.65901e-06
-2.34603e-08
2.68286e-06
-2.38455e-08
2.70706e-06
-2.41959e-08
2.73157e-06
-2.45126e-08
2.75637e-06
-2.47969e-08
2.78142e-06
-2.50497e-08
2.80669e-06
-2.5272e-08
2.83216e-06
-2.54646e-08
2.85779e-06
-2.56281e-08
2.88355e-06
-2.57633e-08
2.90942e-06
-2.58706e-08
2.93538e-06
-2.59506e-08
2.96138e-06
-2.60036e-08
2.98741e-06
-2.60299e-08
3.01344e-06
-2.60298e-08
3.03945e-06
-2.60035e-08
3.0654e-06
-2.59511e-08
3.09127e-06
-2.58725e-08
3.11704e-06
-2.57678e-08
3.14268e-06
-2.56368e-08
3.16816e-06
-2.54792e-08
3.19345e-06
-2.52947e-08
3.21854e-06
-2.50828e-08
3.24338e-06
-2.48429e-08
3.26796e-06
-2.45742e-08
3.29223e-06
-2.42759e-08
3.31618e-06
-2.39466e-08
3.33976e-06
-2.35852e-08
3.36296e-06
-2.31899e-08
3.38571e-06
-2.27588e-08
3.408e-06
-2.22896e-08
3.42978e-06
-2.17796e-08
3.45101e-06
-2.12255e-08
3.47163e-06
-2.06235e-08
3.4916e-06
-1.99689e-08
3.51086e-06
-1.92564e-08
3.52934e-06
-1.84793e-08
3.54697e-06
-1.76298e-08
3.56367e-06
-1.66982e-08
3.57934e-06
-1.56729e-08
3.59388e-06
-1.45396e-08
3.60716e-06
-1.32804e-08
3.61903e-06
-1.18733e-08
3.62932e-06
-1.02903e-08
3.63782e-06
-8.49561e-09
3.64426e-06
-6.44316e-09
3.64833e-06
-4.07252e-09
3.64963e-06
-1.30346e-09
3.64766e-06
1.97321e-09
3.64175e-06
5.91058e-09
3.63102e-06
1.07261e-08
3.61428e-06
1.67366e-08
3.58987e-06
2.44165e-08
3.55537e-06
3.44973e-08
3.50723e-06
4.81416e-08
3.43997e-06
6.7251e-08
3.34496e-06
9.50159e-08
3.20801e-06
1.36947e-07
3.00473e-06
2.03282e-07
2.68949e-06
3.15235e-07
5.34375e-07
2.15512e-06
2.49283e-06
-5.59234e-09
2.49811e-06
-1.02467e-08
2.50553e-06
-1.43721e-08
2.51483e-06
-1.80062e-08
2.52581e-06
-2.12679e-08
2.53832e-06
-2.42223e-08
2.55222e-06
-2.69136e-08
2.5674e-06
-2.93776e-08
2.58374e-06
-3.16416e-08
2.60116e-06
-3.37279e-08
2.61958e-06
-3.56545e-08
2.63892e-06
-3.74363e-08
2.65911e-06
-3.90858e-08
2.68009e-06
-4.06137e-08
2.70181e-06
-4.20292e-08
2.7242e-06
-4.33398e-08
2.74721e-06
-4.45525e-08
2.77081e-06
-4.56729e-08
2.79494e-06
-4.67062e-08
2.81956e-06
-4.76568e-08
2.84462e-06
-4.85287e-08
2.87011e-06
-4.93252e-08
2.89596e-06
-5.00494e-08
2.92215e-06
-5.0704e-08
2.94865e-06
-5.12914e-08
2.97542e-06
-5.18137e-08
3.00242e-06
-5.22728e-08
3.02962e-06
-5.26703e-08
3.05701e-06
-5.30078e-08
3.08453e-06
-5.32866e-08
3.11217e-06
-5.35076e-08
3.13989e-06
-5.3672e-08
3.16767e-06
-5.37806e-08
3.19547e-06
-5.38339e-08
3.22328e-06
-5.38326e-08
3.25105e-06
-5.37771e-08
3.27877e-06
-5.36674e-08
3.3064e-06
-5.35037e-08
3.33392e-06
-5.32859e-08
3.3613e-06
-5.30136e-08
3.38851e-06
-5.26864e-08
3.41552e-06
-5.23035e-08
3.4423e-06
-5.18639e-08
3.46882e-06
-5.13665e-08
3.49506e-06
-5.08096e-08
3.52097e-06
-5.01914e-08
3.54654e-06
-4.95094e-08
3.57171e-06
-4.87609e-08
3.59647e-06
-4.79426e-08
3.62076e-06
-4.70505e-08
3.64455e-06
-4.60799e-08
3.6678e-06
-4.50253e-08
3.69045e-06
-4.38799e-08
3.71246e-06
-4.2636e-08
3.73378e-06
-4.12842e-08
3.75433e-06
-3.98134e-08
3.77407e-06
-3.82103e-08
3.79289e-06
-3.6459e-08
3.81074e-06
-3.45399e-08
3.82749e-06
-3.24297e-08
3.84305e-06
-3.00995e-08
3.85728e-06
-2.75137e-08
3.87004e-06
-2.46282e-08
3.88114e-06
-2.13872e-08
3.89036e-06
-1.77203e-08
3.89745e-06
-1.35366e-08
3.9021e-06
-8.71847e-09
3.9039e-06
-3.11029e-09
3.90238e-06
3.49601e-09
3.8969e-06
1.1387e-08
3.88667e-06
2.09636e-08
3.87061e-06
3.2796e-08
3.84731e-06
4.77128e-08
3.81486e-06
6.69437e-08
3.77065e-06
9.23478e-08
3.71113e-06
1.26776e-07
3.63154e-06
1.74602e-07
3.52604e-06
2.42449e-07
3.38913e-06
3.40195e-07
3.22412e-06
4.80239e-07
6.59114e-07
3.09938e-06
2.66734e-06
-8.55105e-09
2.67293e-06
-1.58409e-08
2.68081e-06
-2.22487e-08
2.6907e-06
-2.78972e-08
2.7024e-06
-3.29645e-08
2.71573e-06
-3.75533e-08
2.73055e-06
-4.17328e-08
2.74673e-06
-4.55587e-08
2.76416e-06
-4.90738e-08
2.78275e-06
-5.23126e-08
2.8024e-06
-5.53031e-08
2.82303e-06
-5.80685e-08
2.84457e-06
-6.06285e-08
2.86696e-06
-6.29995e-08
2.89013e-06
-6.51956e-08
2.91402e-06
-6.7229e-08
2.93858e-06
-6.911e-08
2.96375e-06
-7.08478e-08
2.9895e-06
-7.24502e-08
3.01577e-06
-7.39241e-08
3.04252e-06
-7.52757e-08
3.0697e-06
-7.65101e-08
3.09729e-06
-7.76322e-08
3.12523e-06
-7.86462e-08
3.1535e-06
-7.95557e-08
3.18205e-06
-8.03641e-08
3.21085e-06
-8.10743e-08
3.23987e-06
-8.16888e-08
3.26907e-06
-8.22101e-08
3.29843e-06
-8.264e-08
3.3279e-06
-8.29803e-08
3.35747e-06
-8.32327e-08
3.38708e-06
-8.33982e-08
3.41673e-06
-8.34781e-08
3.44637e-06
-8.34731e-08
3.47598e-06
-8.33837e-08
3.50552e-06
-8.32104e-08
3.53497e-06
-8.29532e-08
3.5643e-06
-8.2612e-08
3.59347e-06
-8.21863e-08
3.62246e-06
-8.16754e-08
3.65124e-06
-8.10782e-08
3.67977e-06
-8.03932e-08
3.70802e-06
-7.96184e-08
3.73597e-06
-7.87515e-08
3.76356e-06
-7.77896e-08
3.79078e-06
-7.67292e-08
3.81759e-06
-7.5566e-08
3.84394e-06
-7.42949e-08
3.8698e-06
-7.29098e-08
3.89513e-06
-7.14038e-08
3.91987e-06
-6.97682e-08
3.94398e-06
-6.79931e-08
3.96741e-06
-6.60666e-08
3.9901e-06
-6.39746e-08
4.01199e-06
-6.17005e-08
4.033e-06
-5.92242e-08
4.05307e-06
-5.65217e-08
4.07209e-06
-5.35641e-08
4.08998e-06
-5.03164e-08
4.10661e-06
-4.6736e-08
4.12187e-06
-4.27706e-08
4.1356e-06
-3.83551e-08
4.14762e-06
-3.34089e-08
4.15773e-06
-2.78301e-08
4.16568e-06
-2.14892e-08
4.17118e-06
-1.42194e-08
4.17387e-06
-5.80447e-09
4.17333e-06
4.03969e-09
4.16902e-06
1.56934e-08
4.16031e-06
2.96747e-08
4.14641e-06
4.66958e-08
4.12638e-06
6.77466e-08
4.0991e-06
9.42158e-08
4.06339e-06
1.28059e-07
4.01815e-06
1.72012e-07
3.96297e-06
2.29787e-07
3.89934e-06
3.06075e-07
3.83378e-06
4.05758e-07
3.78426e-06
5.29756e-07
6.60039e-07
3.78333e-06
2.85405e-06
-1.16054e-08
2.85994e-06
-2.17331e-08
2.86827e-06
-3.05801e-08
2.87876e-06
-3.83874e-08
2.89119e-06
-4.53887e-08
2.90536e-06
-5.17264e-08
2.92113e-06
-5.74979e-08
2.93835e-06
-6.27799e-08
2.95691e-06
-6.76322e-08
2.9767e-06
-7.21023e-08
2.99763e-06
-7.62291e-08
3.0196e-06
-8.00448e-08
3.04255e-06
-8.35764e-08
3.0664e-06
-8.68469e-08
3.09108e-06
-8.98756e-08
3.11653e-06
-9.26794e-08
3.1427e-06
-9.52727e-08
3.16952e-06
-9.7668e-08
3.19695e-06
-9.98761e-08
3.22493e-06
-1.01907e-07
3.25343e-06
-1.03768e-07
3.28239e-06
-1.05468e-07
3.31177e-06
-1.07012e-07
3.34153e-06
-1.08407e-07
3.37163e-06
-1.09658e-07
3.40204e-06
-1.10769e-07
3.43271e-06
-1.11744e-07
3.46361e-06
-1.12587e-07
3.4947e-06
-1.13301e-07
3.52595e-06
-1.13889e-07
3.55733e-06
-1.14354e-07
3.58879e-06
-1.14696e-07
3.62032e-06
-1.14919e-07
3.65186e-06
-1.15024e-07
3.6834e-06
-1.15011e-07
3.7149e-06
-1.14882e-07
3.74633e-06
-1.14637e-07
3.77765e-06
-1.14276e-07
3.80884e-06
-1.13799e-07
3.83986e-06
-1.13206e-07
3.87068e-06
-1.12495e-07
3.90127e-06
-1.11665e-07
3.93159e-06
-1.10715e-07
3.96162e-06
-1.09641e-07
3.9913e-06
-1.0844e-07
4.02062e-06
-1.07109e-07
4.04954e-06
-1.05642e-07
4.07801e-06
-1.04035e-07
4.10599e-06
-1.02279e-07
4.13345e-06
-1.00368e-07
4.16034e-06
-9.82914e-08
4.18661e-06
-9.6038e-08
4.21221e-06
-9.35947e-08
4.23709e-06
-9.09457e-08
4.26119e-06
-8.80723e-08
4.28444e-06
-8.49524e-08
4.30677e-06
-8.15598e-08
4.32812e-06
-7.78631e-08
4.34838e-06
-7.38245e-08
4.36746e-06
-6.93989e-08
4.38525e-06
-6.45311e-08
4.40164e-06
-5.91543e-08
4.41647e-06
-5.31864e-08
4.42958e-06
-4.65259e-08
4.4408e-06
-3.90465e-08
4.4499e-06
-3.05899e-08
4.45664e-06
-2.09558e-08
4.46072e-06
-9.88892e-09
4.46182e-06
2.93637e-09
4.45957e-06
1.79425e-08
4.45357e-06
3.56793e-08
4.44339e-06
5.68742e-08
4.42865e-06
8.24809e-08
4.40912e-06
1.13745e-07
4.38491e-06
1.52272e-07
4.35686e-06
2.00057e-07
4.32725e-06
2.59403e-07
4.30081e-06
3.32505e-07
4.28633e-06
4.20245e-07
4.29703e-06
5.19053e-07
6.14191e-07
4.34288e-06
3.05383e-06
-1.47524e-08
3.06001e-06
-2.79122e-08
3.06879e-06
-3.93604e-08
3.07988e-06
-4.94779e-08
3.09304e-06
-5.85491e-08
3.10807e-06
-6.67578e-08
3.12481e-06
-7.42315e-08
3.1431e-06
-8.10698e-08
3.16282e-06
-8.73504e-08
3.18385e-06
-9.31352e-08
3.2061e-06
-9.84748e-08
3.22946e-06
-1.03411e-07
3.25387e-06
-1.07979e-07
3.27923e-06
-1.12208e-07
3.30548e-06
-1.16123e-07
3.33255e-06
-1.19747e-07
3.36037e-06
-1.23099e-07
3.3889e-06
-1.26193e-07
3.41807e-06
-1.29045e-07
3.44783e-06
-1.31667e-07
3.47814e-06
-1.34069e-07
3.50893e-06
-1.36262e-07
3.54017e-06
-1.38253e-07
3.57182e-06
-1.40051e-07
3.60383e-06
-1.41662e-07
3.63615e-06
-1.43092e-07
3.66875e-06
-1.44345e-07
3.70159e-06
-1.45428e-07
3.73464e-06
-1.46343e-07
3.76785e-06
-1.47095e-07
3.80118e-06
-1.47687e-07
3.83461e-06
-1.48121e-07
3.86809e-06
-1.484e-07
3.90159e-06
-1.48526e-07
3.93508e-06
-1.485e-07
3.96853e-06
-1.48323e-07
4.00189e-06
-1.47996e-07
4.03513e-06
-1.4752e-07
4.06823e-06
-1.46893e-07
4.10114e-06
-1.46117e-07
4.13383e-06
-1.45188e-07
4.16627e-06
-1.44106e-07
4.19843e-06
-1.42868e-07
4.23026e-06
-1.41471e-07
4.26173e-06
-1.39911e-07
4.2928e-06
-1.38182e-07
4.32344e-06
-1.3628e-07
4.35361e-06
-1.34198e-07
4.38325e-06
-1.31926e-07
4.41234e-06
-1.29454e-07
4.44082e-06
-1.26772e-07
4.46865e-06
-1.23864e-07
4.49577e-06
-1.20716e-07
4.52213e-06
-1.17307e-07
4.54767e-06
-1.13614e-07
4.57233e-06
-1.09612e-07
4.59604e-06
-1.05267e-07
4.61872e-06
-1.00543e-07
4.64028e-06
-9.53936e-08
4.66065e-06
-8.97662e-08
4.67972e-06
-8.35958e-08
4.69737e-06
-7.68045e-08
4.71348e-06
-6.92979e-08
4.72791e-06
-6.0961e-08
4.74052e-06
-5.16529e-08
4.75113e-06
-4.12001e-08
4.75956e-06
-2.93878e-08
4.76562e-06
-1.59495e-08
4.76911e-06
-5.58475e-10
4.76985e-06
1.72013e-08
4.76771e-06
3.78251e-08
4.76263e-06
6.19502e-08
4.75476e-06
9.03502e-08
4.74455e-06
1.23951e-07
4.73301e-06
1.63814e-07
4.722e-06
2.11064e-07
4.71471e-06
2.66694e-07
4.7161e-06
3.31116e-07
4.73306e-06
4.0328e-07
4.77307e-06
4.79044e-07
5.48799e-07
4.83846e-06
3.26759e-06
-1.79923e-08
3.27405e-06
-3.43695e-08
3.28327e-06
-4.8584e-08
3.29496e-06
-6.11673e-08
3.30886e-06
-7.24507e-08
3.32477e-06
-8.26589e-08
3.34249e-06
-9.19511e-08
3.36187e-06
-1.00452e-07
3.38278e-06
-1.08257e-07
3.40509e-06
-1.15445e-07
3.42869e-06
-1.22077e-07
3.45349e-06
-1.28208e-07
3.47939e-06
-1.33879e-07
3.50631e-06
-1.39129e-07
3.53418e-06
-1.43988e-07
3.56292e-06
-1.48484e-07
3.59246e-06
-1.52641e-07
3.62275e-06
-1.56477e-07
3.65372e-06
-1.60012e-07
3.68531e-06
-1.6326e-07
3.71748e-06
-1.66236e-07
3.75017e-06
-1.6895e-07
3.78333e-06
-1.71413e-07
3.81692e-06
-1.73636e-07
3.85088e-06
-1.75625e-07
3.88518e-06
-1.77389e-07
3.91977e-06
-1.78935e-07
3.95462e-06
-1.80267e-07
3.98966e-06
-1.81391e-07
4.02488e-06
-1.82312e-07
4.06023e-06
-1.83033e-07
4.09567e-06
-1.83559e-07
4.13116e-06
-1.83891e-07
4.16667e-06
-1.84033e-07
4.20216e-06
-1.83987e-07
4.23759e-06
-1.83753e-07
4.27293e-06
-1.83333e-07
4.30814e-06
-1.82727e-07
4.34318e-06
-1.81935e-07
4.37802e-06
-1.80957e-07
4.41263e-06
-1.7979e-07
4.44695e-06
-1.78434e-07
4.48097e-06
-1.76885e-07
4.51464e-06
-1.75139e-07
4.54792e-06
-1.73192e-07
4.58078e-06
-1.71039e-07
4.61317e-06
-1.68671e-07
4.64506e-06
-1.66082e-07
4.67639e-06
-1.63261e-07
4.70714e-06
-1.60196e-07
4.73724e-06
-1.56874e-07
4.76665e-06
-1.53278e-07
4.79533e-06
-1.4939e-07
4.82321e-06
-1.45188e-07
4.85024e-06
-1.40644e-07
4.87636e-06
-1.3573e-07
4.9015e-06
-1.30408e-07
4.92559e-06
-1.24636e-07
4.94856e-06
-1.18364e-07
4.97033e-06
-1.11533e-07
4.9908e-06
-1.04072e-07
5.00989e-06
-9.58964e-08
5.0275e-06
-8.69073e-08
5.04352e-06
-7.69841e-08
5.05785e-06
-6.59831e-08
5.07039e-06
-5.37313e-08
5.08102e-06
-4.00207e-08
5.08967e-06
-2.46018e-08
5.09629e-06
-7.17702e-09
5.10088e-06
1.26058e-08
5.10356e-06
3.51453e-08
5.1046e-06
6.0914e-08
5.1045e-06
9.04402e-08
5.10417e-06
1.24283e-07
5.105e-06
1.6298e-07
5.10912e-06
2.06944e-07
5.11953e-06
2.56281e-07
5.14017e-06
3.10481e-07
5.17551e-06
3.67941e-07
5.22925e-06
4.25305e-07
4.76888e-07
5.30116e-06
3.49632e-06
-2.13279e-08
3.50305e-06
-4.10991e-08
3.51271e-06
-5.82461e-08
3.525e-06
-7.34529e-08
3.53965e-06
-8.70955e-08
3.55642e-06
-9.94372e-08
3.57514e-06
-1.1067e-07
3.59564e-06
-1.20943e-07
3.61776e-06
-1.30375e-07
3.64137e-06
-1.39058e-07
3.66636e-06
-1.47068e-07
3.69263e-06
-1.5447e-07
3.72006e-06
-1.61316e-07
3.74859e-06
-1.67651e-07
3.77812e-06
-1.73513e-07
3.80857e-06
-1.78935e-07
3.83988e-06
-1.83946e-07
3.87197e-06
-1.8857e-07
3.90479e-06
-1.92827e-07
3.93827e-06
-1.96738e-07
3.97235e-06
-2.00318e-07
4.00699e-06
-2.03582e-07
4.04212e-06
-2.06543e-07
4.0777e-06
-2.09212e-07
4.11367e-06
-2.11599e-07
4.15e-06
-2.13713e-07
4.18662e-06
-2.15562e-07
4.22351e-06
-2.17153e-07
4.26062e-06
-2.18492e-07
4.29789e-06
-2.19586e-07
4.3353e-06
-2.20438e-07
4.3728e-06
-2.21054e-07
4.41034e-06
-2.21436e-07
4.4479e-06
-2.21587e-07
4.48542e-06
-2.21511e-07
4.52288e-06
-2.21209e-07
4.56023e-06
-2.20682e-07
4.59744e-06
-2.19932e-07
4.63446e-06
-2.18957e-07
4.67126e-06
-2.17757e-07
4.70781e-06
-2.16332e-07
4.74405e-06
-2.14678e-07
4.77996e-06
-2.12792e-07
4.81549e-06
-2.10672e-07
4.85061e-06
-2.0831e-07
4.88527e-06
-2.05702e-07
4.91944e-06
-2.02838e-07
4.95307e-06
-1.99711e-07
4.98612e-06
-1.96309e-07
5.01855e-06
-1.92619e-07
5.0503e-06
-1.88626e-07
5.08133e-06
-1.84312e-07
5.1116e-06
-1.79656e-07
5.14104e-06
-1.74633e-07
5.16961e-06
-1.69216e-07
5.19726e-06
-1.63371e-07
5.22391e-06
-1.5706e-07
5.24951e-06
-1.50237e-07
5.274e-06
-1.42851e-07
5.2973e-06
-1.34838e-07
5.31936e-06
-1.26129e-07
5.3401e-06
-1.16637e-07
5.35946e-06
-1.06266e-07
5.37737e-06
-9.48981e-08
5.39379e-06
-8.24002e-08
5.40867e-06
-6.86147e-08
5.42201e-06
-5.33592e-08
5.43383e-06
-3.64242e-08
5.44422e-06
-1.75709e-08
5.45336e-06
3.4673e-09
5.46154e-06
2.69678e-08
5.46924e-06
5.32131e-08
5.47718e-06
8.24896e-08
5.48643e-06
1.15037e-07
5.49841e-06
1.50995e-07
5.51504e-06
1.90315e-07
5.53868e-06
2.32641e-07
5.57202e-06
2.77146e-07
5.61762e-06
3.22335e-07
5.67706e-06
3.65862e-07
4.04532e-07
5.74942e-06
3.74107e-06
-2.47641e-08
3.74807e-06
-4.80976e-08
3.75816e-06
-6.83436e-08
3.77104e-06
-8.63319e-08
3.78643e-06
-1.02484e-07
3.80409e-06
-1.17097e-07
3.82382e-06
-1.30396e-07
3.84544e-06
-1.42559e-07
3.86879e-06
-1.53722e-07
3.89372e-06
-1.63996e-07
3.92013e-06
-1.73473e-07
3.94789e-06
-1.82227e-07
3.9769e-06
-1.90321e-07
4.00705e-06
-1.97808e-07
4.03828e-06
-2.04735e-07
4.07048e-06
-2.11139e-07
4.10359e-06
-2.17054e-07
4.13753e-06
-2.2251e-07
4.17224e-06
-2.27532e-07
4.20765e-06
-2.32143e-07
4.24369e-06
-2.36361e-07
4.28032e-06
-2.40204e-07
4.31746e-06
-2.43687e-07
4.35507e-06
-2.46823e-07
4.3931e-06
-2.49625e-07
4.4315e-06
-2.52104e-07
4.4702e-06
-2.54268e-07
4.50918e-06
-2.56127e-07
4.54838e-06
-2.57687e-07
4.58775e-06
-2.58956e-07
4.62725e-06
-2.59939e-07
4.66684e-06
-2.60641e-07
4.70647e-06
-2.61067e-07
4.74611e-06
-2.61221e-07
4.7857e-06
-2.61105e-07
4.82522e-06
-2.60722e-07
4.86461e-06
-2.60073e-07
4.90384e-06
-2.5916e-07
4.94287e-06
-2.57983e-07
4.98165e-06
-2.56541e-07
5.02016e-06
-2.54834e-07
5.05834e-06
-2.52858e-07
5.09616e-06
-2.5061e-07
5.13357e-06
-2.48087e-07
5.17055e-06
-2.45283e-07
5.20704e-06
-2.42191e-07
5.243e-06
-2.38802e-07
5.2784e-06
-2.35108e-07
5.31318e-06
-2.31095e-07
5.34732e-06
-2.26751e-07
5.38075e-06
-2.2206e-07
5.41344e-06
-2.17002e-07
5.44534e-06
-2.11555e-07
5.4764e-06
-2.05695e-07
5.50658e-06
-1.99392e-07
5.53582e-06
-1.92612e-07
5.56407e-06
-1.85315e-07
5.5913e-06
-1.77458e-07
5.61743e-06
-1.68988e-07
5.64244e-06
-1.59845e-07
5.66627e-06
-1.4996e-07
5.68889e-06
-1.39257e-07
5.71027e-06
-1.27644e-07
5.73039e-06
-1.1502e-07
5.74925e-06
-1.01269e-07
5.7669e-06
-8.62631e-08
5.7834e-06
-6.98592e-08
5.79888e-06
-5.19021e-08
5.81353e-06
-3.22268e-08
5.82766e-06
-1.06626e-08
5.84168e-06
1.2953e-08
5.85615e-06
3.87368e-08
5.87187e-06
6.67703e-08
5.88984e-06
9.70644e-08
5.91133e-06
1.2951e-07
5.93782e-06
1.63825e-07
5.97096e-06
1.99492e-07
6.01242e-06
2.35694e-07
6.06349e-06
2.71262e-07
6.12467e-06
3.04675e-07
3.34179e-07
6.19502e-06
4.00295e-06
-2.83061e-08
4.01022e-06
-5.5363e-08
4.02075e-06
-7.88741e-08
4.03422e-06
-9.98017e-08
4.05035e-06
-1.18613e-07
4.06889e-06
-1.35639e-07
4.08963e-06
-1.51135e-07
4.11238e-06
-1.65305e-07
4.13697e-06
-1.78309e-07
4.16325e-06
-1.90275e-07
4.19109e-06
-2.01309e-07
4.22036e-06
-2.11499e-07
4.25096e-06
-2.20917e-07
4.28278e-06
-2.29627e-07
4.31573e-06
-2.37681e-07
4.34972e-06
-2.45124e-07
4.38466e-06
-2.51996e-07
4.42048e-06
-2.58332e-07
4.45711e-06
-2.6416e-07
4.49448e-06
-2.69508e-07
4.53252e-06
-2.74396e-07
4.57117e-06
-2.78847e-07
4.61036e-06
-2.82877e-07
4.65004e-06
-2.86503e-07
4.69016e-06
-2.89738e-07
4.73065e-06
-2.92595e-07
4.77147e-06
-2.95086e-07
4.81256e-06
-2.97219e-07
4.85388e-06
-2.99004e-07
4.89538e-06
-3.0045e-07
4.937e-06
-3.01562e-07
4.97871e-06
-3.02347e-07
5.02046e-06
-3.0281e-07
5.06219e-06
-3.02956e-07
5.10388e-06
-3.02788e-07
5.14547e-06
-3.0231e-07
5.18692e-06
-3.01523e-07
5.22819e-06
-3.0043e-07
5.26924e-06
-2.9903e-07
5.31002e-06
-2.97324e-07
5.3505e-06
-2.95311e-07
5.39063e-06
-2.92988e-07
5.43038e-06
-2.90352e-07
5.46969e-06
-2.87399e-07
5.50853e-06
-2.84125e-07
5.54686e-06
-2.80521e-07
5.58464e-06
-2.76579e-07
5.62182e-06
-2.7229e-07
5.65837e-06
-2.67641e-07
5.69424e-06
-2.6262e-07
5.72939e-06
-2.57208e-07
5.76378e-06
-2.51389e-07
5.79736e-06
-2.45138e-07
5.8301e-06
-2.38433e-07
5.86195e-06
-2.31244e-07
5.89288e-06
-2.23539e-07
5.92284e-06
-2.15279e-07
5.95181e-06
-2.06424e-07
5.97974e-06
-1.96925e-07
6.00663e-06
-1.86728e-07
6.03244e-06
-1.75774e-07
6.05718e-06
-1.63994e-07
6.08085e-06
-1.51315e-07
6.10348e-06
-1.37654e-07
6.12514e-06
-1.22925e-07
6.14591e-06
-1.07034e-07
6.16593e-06
-8.98853e-08
6.18541e-06
-7.13823e-08
6.20462e-06
-5.14353e-08
6.22392e-06
-2.99657e-08
6.24379e-06
-6.9115e-09
6.26478e-06
1.77391e-08
6.28763e-06
4.39205e-08
6.31319e-06
7.15003e-08
6.34246e-06
1.00248e-07
6.37647e-06
1.29806e-07
6.4163e-06
1.59665e-07
6.46284e-06
1.89149e-07
6.51668e-06
2.17426e-07
6.5778e-06
2.43549e-07
2.66565e-07
6.64542e-06
4.28318e-06
-3.19596e-08
4.29071e-06
-6.28952e-08
4.30167e-06
-8.9836e-08
4.31573e-06
-1.1386e-07
4.3326e-06
-1.35482e-07
4.35202e-06
-1.55063e-07
4.37378e-06
-1.72888e-07
4.39766e-06
-1.89187e-07
4.4235e-06
-2.04144e-07
4.45113e-06
-2.17904e-07
4.48041e-06
-2.30589e-07
4.51121e-06
-2.423e-07
4.54342e-06
-2.53122e-07
4.57692e-06
-2.63125e-07
4.61161e-06
-2.72371e-07
4.6474e-06
-2.80912e-07
4.6842e-06
-2.88795e-07
4.72193e-06
-2.96057e-07
4.7605e-06
-3.02735e-07
4.79985e-06
-3.08857e-07
4.83991e-06
-3.1445e-07
4.8806e-06
-3.19537e-07
4.92187e-06
-3.24139e-07
4.96364e-06
-3.28274e-07
5.00586e-06
-3.31959e-07
5.04848e-06
-3.35208e-07
5.09143e-06
-3.38035e-07
5.13466e-06
-3.40449e-07
5.17812e-06
-3.42463e-07
5.22176e-06
-3.44085e-07
5.26552e-06
-3.45324e-07
5.30937e-06
-3.46186e-07
5.35324e-06
-3.46678e-07
5.39709e-06
-3.46805e-07
5.44087e-06
-3.46572e-07
5.48455e-06
-3.45983e-07
5.52807e-06
-3.45041e-07
5.57139e-06
-3.43748e-07
5.61446e-06
-3.42104e-07
5.65725e-06
-3.40111e-07
5.69971e-06
-3.37768e-07
5.7418e-06
-3.35073e-07
5.78347e-06
-3.32023e-07
5.82469e-06
-3.28615e-07
5.86541e-06
-3.24843e-07
5.90559e-06
-3.20702e-07
5.94519e-06
-3.16183e-07
5.98418e-06
-3.11276e-07
6.02251e-06
-3.0597e-07
6.06014e-06
-3.00252e-07
6.09704e-06
-2.94107e-07
6.13317e-06
-2.87516e-07
6.16849e-06
-2.8046e-07
6.20297e-06
-2.72915e-07
6.23658e-06
-2.64854e-07
6.26929e-06
-2.5625e-07
6.30108e-06
-2.47068e-07
6.33193e-06
-2.37272e-07
6.36183e-06
-2.26821e-07
6.39077e-06
-2.15672e-07
6.41877e-06
-2.03775e-07
6.44586e-06
-1.9108e-07
6.47207e-06
-1.77531e-07
6.49749e-06
-1.63073e-07
6.52221e-06
-1.47647e-07
6.54638e-06
-1.312e-07
6.57017e-06
-1.13681e-07
6.59384e-06
-9.50502e-08
6.61768e-06
-7.52825e-08
6.64209e-06
-5.43739e-08
6.66753e-06
-3.23478e-08
6.69452e-06
-9.25657e-09
6.72366e-06
1.47779e-08
6.75561e-06
3.95566e-08
6.79106e-06
6.47965e-08
6.8307e-06
9.01585e-08
6.87516e-06
1.1521e-07
6.92486e-06
1.39446e-07
6.97998e-06
1.62307e-07
7.04031e-06
1.83217e-07
2.01659e-07
7.10521e-06
4.58302e-06
-3.57299e-08
4.59082e-06
-7.06941e-08
4.60221e-06
-1.01228e-07
4.61685e-06
-1.28502e-07
4.63446e-06
-1.53086e-07
4.65476e-06
-1.75364e-07
4.67752e-06
-1.95651e-07
4.70254e-06
-2.14202e-07
4.72962e-06
-2.31225e-07
4.7586e-06
-2.46884e-07
4.78933e-06
-2.61316e-07
4.82167e-06
-2.74636e-07
4.85549e-06
-2.8694e-07
4.89068e-06
-2.9831e-07
4.92712e-06
-3.08814e-07
4.96473e-06
-3.18513e-07
5.0034e-06
-3.2746e-07
5.04304e-06
-3.35698e-07
5.08357e-06
-3.43267e-07
5.12492e-06
-3.50201e-07
5.167e-06
-3.56532e-07
5.20975e-06
-3.62284e-07
5.2531e-06
-3.67482e-07
5.29698e-06
-3.72148e-07
5.34132e-06
-3.76299e-07
5.38607e-06
-3.79952e-07
5.43116e-06
-3.83123e-07
5.47653e-06
-3.85825e-07
5.52214e-06
-3.88069e-07
5.56793e-06
-3.89866e-07
5.61383e-06
-3.91227e-07
5.65981e-06
-3.92159e-07
5.7058e-06
-3.92671e-07
5.75177e-06
-3.92767e-07
5.79765e-06
-3.92455e-07
5.84341e-06
-3.91739e-07
5.889e-06
-3.90623e-07
5.93436e-06
-3.8911e-07
5.97946e-06
-3.87201e-07
6.02425e-06
-3.84898e-07
6.06868e-06
-3.82201e-07
6.11272e-06
-3.7911e-07
6.15632e-06
-3.75622e-07
6.19944e-06
-3.71734e-07
6.24204e-06
-3.67442e-07
6.28408e-06
-3.62741e-07
6.32552e-06
-3.57623e-07
6.36633e-06
-3.5208e-07
6.40646e-06
-3.46102e-07
6.44589e-06
-3.39677e-07
6.48457e-06
-3.32792e-07
6.52249e-06
-3.25432e-07
6.55961e-06
-3.17578e-07
6.5959e-06
-3.09211e-07
6.63136e-06
-3.00309e-07
6.66595e-06
-2.90847e-07
6.69969e-06
-2.808e-07
6.73255e-06
-2.70139e-07
6.76457e-06
-2.58833e-07
6.79574e-06
-2.46851e-07
6.82613e-06
-2.34157e-07
6.85577e-06
-2.2072e-07
6.88474e-06
-2.06506e-07
6.91315e-06
-1.91485e-07
6.94114e-06
-1.75631e-07
6.96886e-06
-1.58924e-07
6.99653e-06
-1.41355e-07
7.02441e-06
-1.2293e-07
7.0528e-06
-1.03672e-07
7.08206e-06
-8.36299e-08
7.11258e-06
-6.28784e-08
7.14485e-06
-4.15256e-08
7.17934e-06
-1.97063e-08
7.2165e-06
2.39143e-09
7.25678e-06
2.45118e-08
7.30058e-06
4.63563e-08
7.34822e-06
6.75699e-08
7.39986e-06
8.78055e-08
7.45547e-06
1.06699e-07
7.51478e-06
1.23904e-07
1.39147e-07
7.57729e-06
4.90385e-06
-3.96211e-08
4.91192e-06
-7.87597e-08
4.92374e-06
-1.13046e-07
4.93896e-06
-1.43725e-07
4.9573e-06
-1.71419e-07
4.97847e-06
-1.96535e-07
5.00223e-06
-2.19416e-07
5.02838e-06
-2.40344e-07
5.0567e-06
-2.59546e-07
5.08703e-06
-2.77209e-07
5.1192e-06
-2.93485e-07
5.15307e-06
-3.08503e-07
5.1885e-06
-3.2237e-07
5.22537e-06
-3.35179e-07
5.26357e-06
-3.47008e-07
5.30298e-06
-3.57926e-07
5.34352e-06
-3.6799e-07
5.38507e-06
-3.77252e-07
5.42756e-06
-3.85756e-07
5.47091e-06
-3.93541e-07
5.51502e-06
-4.00641e-07
5.55982e-06
-4.07086e-07
5.60525e-06
-4.12905e-07
5.65122e-06
-4.18119e-07
5.69768e-06
-4.22752e-07
5.74455e-06
-4.26821e-07
5.79177e-06
-4.30344e-07
5.83929e-06
-4.33336e-07
5.88703e-06
-4.35812e-07
5.93495e-06
-4.37783e-07
5.98299e-06
-4.39261e-07
6.03109e-06
-4.40255e-07
6.07919e-06
-4.40775e-07
6.12726e-06
-4.40829e-07
6.17523e-06
-4.40422e-07
6.22305e-06
-4.39562e-07
6.27068e-06
-4.38253e-07
6.31808e-06
-4.36499e-07
6.36518e-06
-4.34304e-07
6.41195e-06
-4.31669e-07
6.45835e-06
-4.28597e-07
6.50433e-06
-4.25086e-07
6.54984e-06
-4.21137e-07
6.59486e-06
-4.16748e-07
6.63934e-06
-4.11916e-07
6.68323e-06
-4.06636e-07
6.72651e-06
-4.00904e-07
6.76915e-06
-3.94713e-07
6.8111e-06
-3.88055e-07
6.85235e-06
-3.80922e-07
6.89286e-06
-3.73301e-07
6.93261e-06
-3.65182e-07
6.97158e-06
-3.56551e-07
7.00977e-06
-3.47393e-07
7.04715e-06
-3.37693e-07
7.08373e-06
-3.27432e-07
7.11953e-06
-3.16592e-07
7.15454e-06
-3.05156e-07
7.18881e-06
-2.93104e-07
7.22238e-06
-2.80418e-07
7.2553e-06
-2.6708e-07
7.28766e-06
-2.53075e-07
7.31954e-06
-2.38393e-07
7.35108e-06
-2.23027e-07
7.38243e-06
-2.06978e-07
7.41376e-06
-1.90256e-07
7.44529e-06
-1.72885e-07
7.47726e-06
-1.54902e-07
7.50995e-06
-1.36362e-07
7.54366e-06
-1.17343e-07
7.57873e-06
-9.79454e-08
7.6155e-06
-7.82943e-08
7.65433e-06
-5.85409e-08
7.69558e-06
-3.88588e-08
7.73952e-06
-1.94296e-08
7.78634e-06
-4.68711e-10
7.83617e-06
1.77433e-08
7.88899e-06
3.49867e-08
7.94467e-06
5.10148e-08
8.00296e-06
6.56157e-08
7.8647e-08
8.06346e-06
5.24715e-06
-4.36357e-08
5.25548e-06
-8.70905e-08
5.26772e-06
-1.25286e-07
5.28352e-06
-1.59521e-07
5.30257e-06
-1.90469e-07
5.3246e-06
-2.18564e-07
5.34936e-06
-2.4417e-07
5.37661e-06
-2.67596e-07
5.40616e-06
-2.89093e-07
5.43782e-06
-3.08865e-07
5.47141e-06
-3.27081e-07
5.5068e-06
-3.43885e-07
5.54383e-06
-3.59396e-07
5.58237e-06
-3.73718e-07
5.6223e-06
-3.86939e-07
5.66351e-06
-3.99135e-07
5.70589e-06
-4.1037e-07
5.74935e-06
-4.20704e-07
5.79378e-06
-4.30185e-07
5.8391e-06
-4.38857e-07
5.88522e-06
-4.46759e-07
5.93206e-06
-4.53925e-07
5.97955e-06
-4.60385e-07
6.0276e-06
-4.66168e-07
6.07614e-06
-4.71295e-07
6.12512e-06
-4.75791e-07
6.17445e-06
-4.79673e-07
6.22407e-06
-4.82959e-07
6.27393e-06
-4.85666e-07
6.32396e-06
-4.87807e-07
6.3741e-06
-4.89396e-07
6.42429e-06
-4.90444e-07
6.47447e-06
-4.90961e-07
6.52461e-06
-4.90957e-07
6.57463e-06
-4.90441e-07
6.62449e-06
-4.8942e-07
6.67414e-06
-4.87899e-07
6.72352e-06
-4.85885e-07
6.77261e-06
-4.83383e-07
6.82133e-06
-4.80396e-07
6.86967e-06
-4.76926e-07
6.91756e-06
-4.72976e-07
6.96497e-06
-4.68547e-07
7.01186e-06
-4.63639e-07
7.0582e-06
-4.58251e-07
7.10394e-06
-4.5238e-07
7.14907e-06
-4.46025e-07
7.19354e-06
-4.39181e-07
7.23733e-06
-4.31844e-07
7.28041e-06
-4.24008e-07
7.32278e-06
-4.15666e-07
7.36441e-06
-4.06811e-07
7.40529e-06
-3.97435e-07
7.44543e-06
-3.87529e-07
7.48482e-06
-3.77085e-07
7.52348e-06
-3.66093e-07
7.56143e-06
-3.54544e-07
7.59871e-06
-3.42432e-07
7.63535e-06
-3.29748e-07
7.67142e-06
-3.1649e-07
7.707e-06
-3.02655e-07
7.74217e-06
-2.88246e-07
7.77705e-06
-2.73271e-07
7.81176e-06
-2.57744e-07
7.84648e-06
-2.41688e-07
7.88135e-06
-2.25136e-07
7.9166e-06
-2.08131e-07
7.95243e-06
-1.9073e-07
7.98907e-06
-1.73006e-07
8.02677e-06
-1.55048e-07
8.06579e-06
-1.3696e-07
8.10635e-06
-1.18864e-07
8.14871e-06
-1.00897e-07
8.19306e-06
-8.32108e-08
8.23959e-06
-6.59631e-08
8.28844e-06
-4.93191e-08
8.33961e-06
-3.34227e-08
8.39302e-06
-1.84319e-08
8.44853e-06
-4.48967e-09
8.50586e-06
8.28129e-09
1.98051e-08
8.5647e-06
5.61448e-06
-4.77745e-08
5.62307e-06
-9.56833e-08
5.63573e-06
-1.37939e-07
5.65208e-06
-1.75877e-07
5.67184e-06
-2.10222e-07
5.69471e-06
-2.41431e-07
5.72043e-06
-2.69892e-07
5.74877e-06
-2.95938e-07
5.77952e-06
-3.1984e-07
5.81248e-06
-3.41824e-07
5.84748e-06
-3.62076e-07
5.88435e-06
-3.80753e-07
5.92295e-06
-3.97989e-07
5.96313e-06
-4.13896e-07
6.00477e-06
-4.28575e-07
6.04774e-06
-4.42107e-07
6.09194e-06
-4.54567e-07
6.13726e-06
-4.66019e-07
6.1836e-06
-4.76518e-07
6.23086e-06
-4.86113e-07
6.27895e-06
-4.94848e-07
6.32779e-06
-5.02761e-07
6.37729e-06
-5.09885e-07
6.42738e-06
-5.16252e-07
6.47797e-06
-5.21888e-07
6.529e-06
-5.26818e-07
6.5804e-06
-5.31064e-07
6.63209e-06
-5.34647e-07
6.68401e-06
-5.37583e-07
6.7361e-06
-5.3989e-07
6.78829e-06
-5.41583e-07
6.84052e-06
-5.42674e-07
6.89274e-06
-5.43177e-07
6.94489e-06
-5.43103e-07
6.99691e-06
-5.42461e-07
7.04876e-06
-5.41261e-07
7.10037e-06
-5.39512e-07
7.15171e-06
-5.37219e-07
7.20272e-06
-5.34391e-07
7.25336e-06
-5.31033e-07
7.30358e-06
-5.27148e-07
7.35335e-06
-5.22742e-07
7.40262e-06
-5.17818e-07
7.45136e-06
-5.12377e-07
7.49953e-06
-5.06423e-07
7.54711e-06
-4.99955e-07
7.59406e-06
-4.92974e-07
7.64036e-06
-4.8548e-07
7.68599e-06
-4.77473e-07
7.73093e-06
-4.68949e-07
7.77518e-06
-4.59909e-07
7.81872e-06
-4.50351e-07
7.86156e-06
-4.40272e-07
7.9037e-06
-4.29671e-07
7.94516e-06
-4.18546e-07
7.98597e-06
-4.06899e-07
8.02615e-06
-3.9473e-07
8.06576e-06
-3.82042e-07
8.10486e-06
-3.68841e-07
8.1435e-06
-3.55135e-07
8.18178e-06
-3.40937e-07
8.2198e-06
-3.26265e-07
8.25767e-06
-3.11141e-07
8.29552e-06
-2.95597e-07
8.3335e-06
-2.79668e-07
8.37177e-06
-2.63402e-07
8.41049e-06
-2.46855e-07
8.44986e-06
-2.30093e-07
8.49004e-06
-2.13193e-07
8.53124e-06
-1.96243e-07
8.57361e-06
-1.79339e-07
8.61734e-06
-1.62591e-07
8.66255e-06
-1.4611e-07
8.70936e-06
-1.30018e-07
8.75783e-06
-1.14434e-07
8.80798e-06
-9.94769e-08
8.85982e-06
-8.52569e-08
8.91326e-06
-7.18767e-08
8.96819e-06
-5.94208e-08
9.02441e-06
-4.79384e-08
-3.74537e-08
9.08167e-06
6.00752e-06
-5.20363e-08
6.01637e-06
-1.04532e-07
6.02942e-06
-1.50991e-07
6.04632e-06
-1.92776e-07
6.06676e-06
-2.30654e-07
6.09043e-06
-2.65109e-07
6.11709e-06
-2.9655e-07
6.14649e-06
-3.25332e-07
6.1784e-06
-3.51751e-07
6.21263e-06
-3.76048e-07
6.24898e-06
-3.98429e-07
6.2873e-06
-4.19065e-07
6.32741e-06
-4.38102e-07
6.36919e-06
-4.55666e-07
6.41248e-06
-4.71865e-07
6.45717e-06
-4.86792e-07
6.50313e-06
-5.00528e-07
6.55026e-06
-5.13143e-07
6.59844e-06
-5.247e-07
6.64759e-06
-5.35252e-07
6.69759e-06
-5.44849e-07
6.74836e-06
-5.53532e-07
6.79982e-06
-5.6134e-07
6.85188e-06
-5.68307e-07
6.90446e-06
-5.74463e-07
6.95748e-06
-5.79835e-07
7.01087e-06
-5.8445e-07
7.06456e-06
-5.88329e-07
7.11847e-06
-5.91493e-07
7.17254e-06
-5.9396e-07
7.22671e-06
-5.95749e-07
7.28091e-06
-5.96874e-07
7.33509e-06
-5.9735e-07
7.38918e-06
-5.97192e-07
7.44313e-06
-5.9641e-07
7.49689e-06
-5.95016e-07
7.5504e-06
-5.9302e-07
7.60362e-06
-5.90433e-07
7.65649e-06
-5.87262e-07
7.70898e-06
-5.83516e-07
7.76104e-06
-5.79202e-07
7.81262e-06
-5.74327e-07
7.8637e-06
-5.68897e-07
7.91425e-06