/*--------------------------------*- C++ -*----------------------------------*\
| =========                 |                                                 |
| \\      /  F ield         | OpenFOAM: The Open Source CFD Toolbox           |
|  \\    /   O peration     | Version:  2112                                  |
|   \\  /    A nd           | Website:  www.openfoam.com                      |
|    \\/     M anipulation  |                                                 |
\*---------------------------------------------------------------------------*/
FoamFile
{
    version     2.0;
    format      ascii;
    arch        "LSB;label=32;scalar=64";
    class       volScalarField;
    location    "10";
    object      T;
}
// * * * * * * * * * * * * * * * * * * * * * * * * * * * * * * * * * * * * * //

dimensions      [0 0 0 1 0 0 0];

internalField   nonuniform List<scalar> 
12013
(
300.004
300.011
300.019
300.026
300.035
300.043
300.052
300.061
300.071
300.081
300.091
300.102
300.113
300.124
300.136
300.148
300.16
300.173
300.187
300.2
300.215
300.229
300.244
300.26
300.276
300.292
300.309
300.327
300.345
300.363
300.382
300.402
300.422
300.443
300.464
300.486
300.508
300.532
300.555
300.58
300.605
300.63
300.657
300.684
300.712
300.741
300.77
300.8
300.831
300.863
300.896
300.93
300.964
301
301.036
301.074
301.112
301.152
301.193
301.235
301.278
301.322
301.368
301.416
301.464
301.515
301.567
301.621
301.676
301.734
301.795
301.857
301.923
301.991
302.063
302.139
302.22
302.308
302.402
302.508
302.631
300.004
300.011
300.019
300.026
300.035
300.043
300.052
300.061
300.071
300.081
300.091
300.102
300.113
300.124
300.136
300.148
300.16
300.173
300.187
300.2
300.215
300.229
300.244
300.26
300.276
300.292
300.309
300.327
300.345
300.363
300.382
300.402
300.422
300.443
300.464
300.486
300.508
300.532
300.555
300.58
300.605
300.63
300.657
300.684
300.712
300.74
300.77
300.8
300.831
300.863
300.896
300.929
300.964
300.999
301.036
301.073
301.112
301.152
301.192
301.234
301.277
301.322
301.368
301.415
301.464
301.514
301.566
301.62
301.675
301.733
301.793
301.856
301.921
301.989
302.06
302.136
302.216
302.301
302.393
302.493
302.602
300.004
300.011
300.019
300.026
300.035
300.043
300.052
300.061
300.071
300.081
300.091
300.102
300.113
300.124
300.136
300.148
300.16
300.173
300.187
300.2
300.215
300.229
300.244
300.26
300.276
300.292
300.309
300.327
300.345
300.363
300.382
300.402
300.422
300.443
300.464
300.486
300.508
300.531
300.555
300.58
300.605
300.63
300.657
300.684
300.712
300.74
300.77
300.8
300.831
300.863
300.895
300.929
300.964
300.999
301.035
301.073
301.111
301.151
301.192
301.234
301.277
301.321
301.367
301.414
301.462
301.512
301.564
301.618
301.673
301.73
301.79
301.852
301.916
301.984
302.054
302.128
302.206
302.288
302.375
302.467
302.563
300.004
300.011
300.019
300.026
300.035
300.043
300.052
300.061
300.071
300.081
300.091
300.102
300.113
300.124
300.136
300.148
300.16
300.173
300.187
300.2
300.215
300.229
300.244
300.26
300.276
300.292
300.309
300.327
300.345
300.363
300.382
300.402
300.422
300.443
300.464
300.486
300.508
300.531
300.555
300.579
300.604
300.63
300.656
300.684
300.711
300.74
300.769
300.8
300.831
300.862
300.895
300.928
300.963
300.998
301.035
301.072
301.11
301.15
301.191
301.232
301.275
301.319
301.365
301.412
301.46
301.51
301.561
301.614
301.669
301.726
301.785
301.846
301.909
301.975
302.044
302.116
302.191
302.269
302.35
302.434
302.52
300.004
300.011
300.019
300.026
300.035
300.043
300.052
300.061
300.071
300.081
300.091
300.102
300.113
300.124
300.136
300.148
300.16
300.173
300.187
300.2
300.215
300.229
300.244
300.26
300.276
300.292
300.309
300.327
300.345
300.363
300.382
300.402
300.422
300.443
300.464
300.486
300.508
300.531
300.555
300.579
300.604
300.63
300.656
300.683
300.711
300.74
300.769
300.799
300.83
300.862
300.894
300.928
300.962
300.997
301.034
301.071
301.109
301.148
301.189
301.23
301.273
301.317
301.362
301.409
301.457
301.506
301.557
301.61
301.664
301.72
301.778
301.838
301.9
301.964
302.03
302.099
302.17
302.244
302.32
302.397
302.474
300.004
300.011
300.019
300.026
300.035
300.043
300.052
300.061
300.071
300.081
300.091
300.102
300.113
300.124
300.136
300.148
300.16
300.173
300.187
300.2
300.215
300.229
300.244
300.26
300.276
300.292
300.309
300.327
300.345
300.363
300.382
300.402
300.422
300.442
300.464
300.485
300.508
300.531
300.555
300.579
300.604
300.629
300.656
300.683
300.711
300.739
300.768
300.798
300.829
300.861
300.893
300.927
300.961
300.996
301.032
301.069
301.107
301.146
301.187
301.228
301.27
301.314
301.359
301.405
301.452
301.501
301.551
301.603
301.657
301.711
301.768
301.827
301.887
301.949
302.013
302.078
302.146
302.215
302.285
302.355
302.426
300.004
300.011
300.019
300.026
300.035
300.043
300.052
300.061
300.071
300.081
300.091
300.102
300.113
300.124
300.136
300.148
300.16
300.173
300.187
300.2
300.214
300.229
300.244
300.26
300.276
300.292
300.309
300.327
300.344
300.363
300.382
300.401
300.422
300.442
300.463
300.485
300.508
300.531
300.554
300.578
300.603
300.629
300.655
300.682
300.71
300.738
300.767
300.797
300.828
300.86
300.892
300.925
300.959
300.994
301.03
301.067
301.105
301.144
301.184
301.225
301.267
301.31
301.354
301.4
301.447
301.495
301.544
301.595
301.647
301.701
301.756
301.813
301.871
301.93
301.991
302.054
302.117
302.182
302.247
302.312
302.376
300.004
300.011
300.019
300.026
300.035
300.043
300.052
300.061
300.071
300.081
300.091
300.102
300.113
300.124
300.136
300.148
300.16
300.173
300.187
300.2
300.214
300.229
300.244
300.26
300.276
300.292
300.309
300.326
300.344
300.363
300.382
300.401
300.421
300.442
300.463
300.485
300.507
300.53
300.554
300.578
300.603
300.628
300.654
300.681
300.709
300.737
300.766
300.796
300.827
300.858
300.89
300.923
300.957
300.992
301.028
301.064
301.102
301.14
301.18
301.22
301.262
301.305
301.348
301.393
301.439
301.486
301.535
301.585
301.635
301.688
301.741
301.796
301.852
301.909
301.967
302.026
302.085
302.145
302.206
302.266
302.325
300.004
300.011
300.019
300.026
300.035
300.043
300.052
300.061
300.071
300.081
300.091
300.102
300.113
300.124
300.136
300.148
300.16
300.173
300.186
300.2
300.214
300.229
300.244
300.26
300.275
300.292
300.309
300.326
300.344
300.363
300.381
300.401
300.421
300.442
300.463
300.484
300.507
300.53
300.553
300.577
300.602
300.627
300.654
300.68
300.708
300.736
300.765
300.795
300.825
300.856
300.888
300.921
300.955
300.989
301.024
301.061
301.098
301.136
301.175
301.215
301.256
301.298
301.341
301.385
301.43
301.476
301.524
301.572
301.621
301.672
301.723
301.776
301.829
301.884
301.939
301.994
302.05
302.106
302.162
302.218
302.273
300.004
300.011
300.019
300.026
300.035
300.043
300.052
300.061
300.071
300.081
300.091
300.102
300.112
300.124
300.136
300.148
300.16
300.173
300.186
300.2
300.214
300.229
300.244
300.259
300.275
300.292
300.309
300.326
300.344
300.362
300.381
300.401
300.421
300.441
300.462
300.484
300.506
300.529
300.552
300.576
300.601
300.626
300.652
300.679
300.706
300.734
300.763
300.793
300.823
300.854
300.886
300.918
300.951
300.986
301.021
301.056
301.093
301.131
301.169
301.209
301.249
301.29
301.332
301.375
301.419
301.464
301.51
301.557
301.605
301.654
301.703
301.753
301.804
301.856
301.908
301.96
302.012
302.065
302.117
302.168
302.219
300.004
300.011
300.018
300.026
300.035
300.043
300.052
300.061
300.071
300.081
300.091
300.101
300.112
300.124
300.135
300.148
300.16
300.173
300.186
300.2
300.214
300.229
300.244
300.259
300.275
300.292
300.308
300.326
300.344
300.362
300.381
300.4
300.42
300.441
300.462
300.483
300.505
300.528
300.551
300.575
300.6
300.625
300.651
300.677
300.705
300.733
300.761
300.79
300.82
300.851
300.882
300.915
300.948
300.981
301.016
301.051
301.087
301.124
301.162
301.201
301.24
301.281
301.322
301.364
301.407
301.451
301.495
301.54
301.586
301.633
301.68
301.728
301.776
301.825
301.874
301.923
301.972
302.021
302.069
302.117
302.165
300.004
300.011
300.018
300.026
300.035
300.043
300.052
300.061
300.071
300.081
300.091
300.101
300.112
300.124
300.135
300.148
300.16
300.173
300.186
300.2
300.214
300.229
300.244
300.259
300.275
300.291
300.308
300.325
300.343
300.362
300.38
300.4
300.42
300.44
300.461
300.482
300.504
300.527
300.55
300.574
300.599
300.624
300.649
300.676
300.703
300.73
300.759
300.787
300.817
300.848
300.879
300.91
300.943
300.976
301.01
301.045
301.081
301.117
301.154
301.192
301.23
301.27
301.31
301.351
301.392
301.434
301.477
301.521
301.565
301.61
301.655
301.7
301.746
301.792
301.838
301.884
301.93
301.975
302.02
302.065
302.109
300.004
300.011
300.018
300.026
300.035
300.043
300.052
300.061
300.071
300.081
300.091
300.101
300.112
300.124
300.135
300.147
300.16
300.173
300.186
300.2
300.214
300.228
300.243
300.259
300.275
300.291
300.308
300.325
300.343
300.361
300.38
300.399
300.419
300.439
300.46
300.481
300.503
300.526
300.549
300.573
300.597
300.622
300.647
300.673
300.7
300.727
300.755
300.784
300.813
300.843
300.874
300.906
300.938
300.97
301.004
301.038
301.073
301.108
301.145
301.181
301.219
301.257
301.296
301.336
301.376
301.416
301.458
301.499
301.541
301.584
301.627
301.67
301.713
301.756
301.799
301.843
301.885
301.928
301.97
302.012
302.053
300.004
300.011
300.018
300.026
300.035
300.043
300.052
300.061
300.071
300.081
300.091
300.101
300.112
300.124
300.135
300.147
300.16
300.173
300.186
300.2
300.214
300.228
300.243
300.258
300.274
300.291
300.307
300.325
300.342
300.36
300.379
300.398
300.418
300.438
300.459
300.48
300.502
300.524
300.547
300.571
300.595
300.62
300.645
300.671
300.697
300.724
300.752
300.78
300.809
300.839
300.869
300.9
300.931
300.963
300.996
301.03
301.064
301.098
301.134
301.169
301.206
301.243
301.28
301.319
301.357
301.396
301.436
301.475
301.515
301.556
301.596
301.637
301.678
301.718
301.759
301.799
301.84
301.879
301.919
301.957
301.996
300.004
300.011
300.018
300.026
300.035
300.043
300.052
300.061
300.071
300.08
300.091
300.101
300.112
300.123
300.135
300.147
300.16
300.172
300.186
300.199
300.213
300.228
300.243
300.258
300.274
300.29
300.307
300.324
300.342
300.36
300.378
300.397
300.417
300.437
300.458
300.479
300.5
300.523
300.545
300.569
300.593
300.617
300.642
300.668
300.694
300.72
300.748
300.776
300.804
300.833
300.863
300.893
300.924
300.955
300.987
301.02
301.053
301.087
301.121
301.156
301.191
301.227
301.263
301.3
301.337
301.374
301.412
301.449
301.488
301.526
301.564
301.602
301.641
301.679
301.717
301.755
301.792
301.829
301.866
301.902
301.938
300.004
300.011
300.018
300.026
300.035
300.043
300.052
300.061
300.071
300.08
300.091
300.101
300.112
300.123
300.135
300.147
300.159
300.172
300.185
300.199
300.213
300.227
300.242
300.258
300.273
300.29
300.306
300.323
300.341
300.359
300.377
300.396
300.416
300.436
300.456
300.477
300.499
300.521
300.543
300.566
300.59
300.614
300.639
300.664
300.69
300.716
300.743
300.77
300.798
300.827
300.856
300.885
300.916
300.946
300.977
301.009
301.041
301.074
301.107
301.141
301.175
301.209
301.244
301.279
301.314
301.35
301.386
301.422
301.458
301.494
301.53
301.566
301.602
301.638
301.673
301.709
301.744
301.779
301.813
301.847
301.88
300.004
300.011
300.018
300.026
300.035
300.043
300.052
300.061
300.071
300.08
300.091
300.101
300.112
300.123
300.135
300.147
300.159
300.172
300.185
300.199
300.213
300.227
300.242
300.257
300.273
300.289
300.305
300.322
300.34
300.358
300.376
300.395
300.414
300.434
300.454
300.475
300.496
300.518
300.541
300.563
300.587
300.61
300.635
300.66
300.685
300.711
300.737
300.764
300.792
300.819
300.848
300.877
300.906
300.936
300.966
300.997
301.028
301.06
301.092
301.124
301.157
301.19
301.223
301.256
301.29
301.324
301.358
301.392
301.426
301.46
301.494
301.528
301.562
301.595
301.629
301.662
301.695
301.727
301.759
301.79
301.822
300.004
300.011
300.018
300.026
300.034
300.043
300.052
300.061
300.07
300.08
300.09
300.101
300.112
300.123
300.135
300.147
300.159
300.172
300.185
300.198
300.212
300.227
300.241
300.257
300.272
300.288
300.305
300.321
300.339
300.357
300.375
300.394
300.413
300.432
300.452
300.473
300.494
300.516
300.538
300.56
300.583
300.606
300.63
300.655
300.68
300.705
300.731
300.757
300.784
300.811
300.839
300.867
300.896
300.924
300.954
300.984
301.014
301.044
301.075
301.106
301.137
301.168
301.2
301.232
301.264
301.296
301.328
301.36
301.393
301.425
301.457
301.489
301.52
301.552
301.583
301.614
301.644
301.675
301.705
301.734
301.763
300.004
300.011
300.018
300.026
300.034
300.043
300.052
300.061
300.07
300.08
300.09
300.101
300.112
300.123
300.134
300.146
300.159
300.171
300.184
300.198
300.212
300.226
300.241
300.256
300.271
300.287
300.304
300.32
300.338
300.355
300.373
300.392
300.411
300.43
300.45
300.47
300.491
300.512
300.534
300.556
300.579
300.602
300.625
300.649
300.674
300.699
300.724
300.75
300.776
300.802
300.829
300.856
300.884
300.912
300.94
300.969
300.998
301.027
301.056
301.086
301.116
301.146
301.176
301.206
301.237
301.267
301.297
301.328
301.358
301.388
301.418
301.448
301.478
301.507
301.536
301.565
301.594
301.622
301.65
301.678
301.705
300.004
300.011
300.018
300.026
300.034
300.043
300.052
300.061
300.07
300.08
300.09
300.101
300.111
300.123
300.134
300.146
300.158
300.171
300.184
300.197
300.211
300.225
300.24
300.255
300.27
300.286
300.302
300.319
300.336
300.354
300.372
300.39
300.409
300.428
300.448
300.468
300.488
300.509
300.53
300.552
300.574
300.597
300.62
300.643
300.667
300.691
300.716
300.741
300.766
300.792
300.818
300.844
300.871
300.898
300.925
300.953
300.981
301.008
301.037
301.065
301.093
301.122
301.15
301.179
301.208
301.237
301.265
301.294
301.322
301.351
301.379
301.407
301.435
301.462
301.489
301.516
301.543
301.57
301.596
301.621
301.647
300.004
300.011
300.018
300.026
300.034
300.043
300.052
300.061
300.07
300.08
300.09
300.1
300.111
300.122
300.134
300.146
300.158
300.171
300.183
300.197
300.211
300.225
300.239
300.254
300.269
300.285
300.301
300.318
300.335
300.352
300.37
300.388
300.406
300.425
300.445
300.464
300.484
300.505
300.526
300.547
300.569
300.591
300.614
300.636
300.66
300.683
300.707
300.731
300.756
300.781
300.806
300.831
300.857
300.883
300.909
300.936
300.962
300.989
301.016
301.043
301.07
301.097
301.124
301.151
301.178
301.205
301.232
301.259
301.286
301.312
301.339
301.365
301.391
301.417
301.442
301.468
301.492
301.517
301.541
301.565
301.589
300.004
300.011
300.018
300.026
300.034
300.043
300.051
300.061
300.07
300.08
300.09
300.1
300.111
300.122
300.133
300.145
300.157
300.17
300.183
300.196
300.21
300.224
300.238
300.253
300.268
300.284
300.3
300.316
300.333
300.35
300.367
300.385
300.404
300.422
300.441
300.461
300.48
300.501
300.521
300.542
300.563
300.585
300.607
300.629
300.652
300.675
300.698
300.721
300.745
300.769
300.793
300.818
300.842
300.867
300.892
300.917
300.943
300.968
300.994
301.019
301.045
301.071
301.096
301.122
301.147
301.173
301.198
301.223
301.249
301.273
301.298
301.323
301.347
301.371
301.395
301.419
301.442
301.465
301.488
301.51
301.532
300.004
300.011
300.018
300.026
300.034
300.043
300.051
300.06
300.07
300.079
300.09
300.1
300.111
300.122
300.133
300.145
300.157
300.169
300.182
300.195
300.209
300.223
300.237
300.252
300.267
300.282
300.298
300.314
300.331
300.348
300.365
300.383
300.401
300.419
300.438
300.457
300.476
300.496
300.516
300.536
300.557
300.578
300.599
300.621
300.643
300.665
300.687
300.71
300.733
300.756
300.779
300.803
300.827
300.85
300.874
300.898
300.922
300.947
300.971
300.995
301.019
301.044
301.068
301.092
301.116
301.14
301.164
301.188
301.211
301.234
301.258
301.281
301.303
301.326
301.348
301.37
301.392
301.414
301.435
301.456
301.476
300.004
300.011
300.018
300.026
300.034
300.042
300.051
300.06
300.07
300.079
300.089
300.1
300.11
300.121
300.133
300.144
300.156
300.169
300.182
300.195
300.208
300.222
300.236
300.251
300.265
300.281
300.296
300.312
300.329
300.345
300.362
300.379
300.397
300.415
300.434
300.452
300.471
300.49
300.51
300.53
300.55
300.571
300.591
300.612
300.633
300.655
300.677
300.698
300.72
300.743
300.765
300.788
300.81
300.833
300.856
300.879
300.901
300.924
300.947
300.97
300.993
301.016
301.039
301.062
301.084
301.107
301.129
301.152
301.174
301.196
301.217
301.239
301.26
301.281
301.302
301.323
301.343
301.363
301.383
301.402
301.422
300.004
300.011
300.018
300.026
300.034
300.042
300.051
300.06
300.069
300.079
300.089
300.099
300.11
300.121
300.132
300.144
300.156
300.168
300.181
300.194
300.207
300.221
300.235
300.249
300.264
300.279
300.294
300.31
300.326
300.342
300.359
300.376
300.394
300.411
300.429
300.447
300.466
300.485
300.504
300.523
300.543
300.563
300.583
300.603
300.623
300.644
300.665
300.686
300.707
300.729
300.75
300.771
300.793
300.815
300.836
300.858
300.88
300.902
300.924
300.945
300.967
300.989
301.01
301.031
301.053
301.074
301.095
301.116
301.137
301.157
301.178
301.198
301.218
301.237
301.257
301.276
301.295
301.314
301.332
301.351
301.369
300.004
300.011
300.018
300.026
300.034
300.042
300.051
300.06
300.069
300.079
300.089
300.099
300.109
300.12
300.132
300.143
300.155
300.167
300.18
300.193
300.206
300.219
300.233
300.247
300.262
300.277
300.292
300.308
300.323
300.339
300.356
300.373
300.39
300.407
300.424
300.442
300.46
300.479
300.497
300.516
300.535
300.554
300.574
300.593
300.613
300.633
300.653
300.673
300.694
300.714
300.734
300.755
300.776
300.796
300.817
300.838
300.858
300.879
300.9
300.92
300.941
300.961
300.981
301.001
301.021
301.041
301.061
301.081
301.1
301.119
301.139
301.157
301.176
301.195
301.213
301.231
301.249
301.266
301.284
301.301
301.318
300.003
300.011
300.018
300.026
300.034
300.042
300.051
300.06
300.069
300.078
300.088
300.098
300.109
300.12
300.131
300.142
300.154
300.166
300.179
300.192
300.205
300.218
300.232
300.246
300.26
300.275
300.29
300.305
300.32
300.336
300.352
300.369
300.385
300.402
300.419
300.437
300.454
300.472
300.49
300.509
300.527
300.546
300.564
300.583
300.602
300.622
300.641
300.66
300.68
300.699
300.719
300.738
300.758
300.778
300.797
300.817
300.837
300.856
300.876
300.895
300.914
300.934
300.953
300.972
300.991
301.009
301.028
301.047
301.065
301.083
301.101
301.119
301.136
301.153
301.171
301.187
301.204
301.221
301.237
301.253
301.269
300.003
300.011
300.018
300.026
300.034
300.042
300.05
300.059
300.069
300.078
300.088
300.098
300.108
300.119
300.13
300.142
300.153
300.165
300.178
300.19
300.203
300.217
300.23
300.244
300.258
300.272
300.287
300.302
300.317
300.333
300.349
300.365
300.381
300.398
300.414
300.431
300.448
300.466
300.483
300.501
300.519
300.537
300.555
300.573
300.591
300.61
300.628
300.647
300.666
300.684
300.703
300.722
300.741
300.759
300.778
300.797
300.815
300.834
300.852
300.871
300.889
300.907
300.925
300.943
300.961
300.979
300.996
301.014
301.031
301.048
301.065
301.081
301.098
301.114
301.13
301.146
301.162
301.177
301.192
301.207
301.222
300.003
300.011
300.018
300.026
300.033
300.042
300.05
300.059
300.068
300.078
300.087
300.097
300.108
300.119
300.13
300.141
300.152
300.164
300.177
300.189
300.202
300.215
300.228
300.242
300.256
300.27
300.285
300.299
300.314
300.33
300.345
300.361
300.377
300.393
300.409
300.425
300.442
300.459
300.476
300.493
300.51
300.528
300.545
300.563
300.581
300.598
300.616
300.634
300.652
300.67
300.688
300.706
300.723
300.741
300.759
300.777
300.794
300.812
300.83
300.847
300.864
300.882
300.899
300.916
300.933
300.949
300.966
300.982
300.998
301.014
301.03
301.046
301.062
301.077
301.092
301.107
301.122
301.136
301.151
301.165
301.179
300.003
300.01
300.018
300.025
300.033
300.042
300.05
300.059
300.068
300.077
300.087
300.097
300.107
300.118
300.129
300.14
300.151
300.163
300.175
300.188
300.2
300.213
300.226
300.24
300.254
300.268
300.282
300.296
300.311
300.326
300.341
300.356
300.372
300.388
300.404
300.42
300.436
300.452
300.469
300.485
300.502
300.519
300.536
300.553
300.57
300.587
300.604
300.621
300.638
300.656
300.673
300.69
300.707
300.724
300.741
300.758
300.775
300.791
300.808
300.825
300.841
300.858
300.874
300.89
300.906
300.922
300.937
300.953
300.968
300.983
300.998
301.013
301.028
301.042
301.057
301.071
301.085
301.099
301.112
301.125
301.139
300.003
300.01
300.018
300.025
300.033
300.041
300.05
300.059
300.068
300.077
300.087
300.096
300.107
300.117
300.128
300.139
300.15
300.162
300.174
300.186
300.199
300.212
300.225
300.238
300.251
300.265
300.279
300.293
300.308
300.323
300.337
300.352
300.368
300.383
300.398
300.414
300.43
300.446
300.462
300.478
300.494
300.51
300.527
300.543
300.56
300.576
300.593
300.609
300.626
300.642
300.659
300.675
300.691
300.708
300.724
300.74
300.756
300.772
300.788
300.804
300.82
300.835
300.851
300.866
300.881
300.896
300.911
300.926
300.94
300.955
300.969
300.983
300.997
301.011
301.024
301.038
301.051
301.064
301.077
301.09
301.102
300.003
300.01
300.018
300.025
300.033
300.041
300.05
300.058
300.067
300.076
300.086
300.096
300.106
300.116
300.127
300.138
300.15
300.161
300.173
300.185
300.197
300.21
300.223
300.236
300.249
300.263
300.277
300.291
300.305
300.319
300.334
300.348
300.363
300.378
300.393
300.409
300.424
300.44
300.455
300.471
300.487
300.502
300.518
300.534
300.55
300.566
300.582
300.598
300.614
300.63
300.645
300.661
300.677
300.693
300.708
300.724
300.739
300.754
300.77
300.785
300.8
300.815
300.83
300.844
300.859
300.873
300.887
300.901
300.915
300.929
300.943
300.956
300.969
300.982
300.995
301.008
301.021
301.033
301.045
301.058
301.069
300.003
300.01
300.018
300.025
300.033
300.041
300.049
300.058
300.067
300.076
300.086
300.095
300.105
300.116
300.126
300.137
300.149
300.16
300.172
300.184
300.196
300.208
300.221
300.234
300.247
300.261
300.274
300.288
300.302
300.316
300.33
300.345
300.359
300.374
300.389
300.404
300.419
300.434
300.449
300.464
300.48
300.495
300.51
300.526
300.541
300.557
300.572
300.588
300.603
300.618
300.634
300.649
300.664
300.679
300.694
300.709
300.724
300.739
300.753
300.768
300.782
300.797
300.811
300.825
300.839
300.853
300.866
300.88
300.893
300.906
300.919
300.932
300.945
300.958
300.97
300.982
300.994
301.006
301.018
301.03
301.041
300.003
300.01
300.017
300.025
300.033
300.041
300.049
300.058
300.066
300.076
300.085
300.095
300.105
300.115
300.126
300.137
300.148
300.159
300.171
300.183
300.195
300.207
300.22
300.232
300.245
300.258
300.272
300.285
300.299
300.313
300.327
300.341
300.356
300.37
300.385
300.399
300.414
300.429
300.444
300.459
300.474
300.489
300.504
300.519
300.534
300.549
300.564
300.579
300.594
300.609
300.623
300.638
300.653
300.668
300.682
300.697
300.711
300.725
300.74
300.754
300.768
300.781
300.795
300.809
300.822
300.835
300.849
300.862
300.875
300.887
300.9
300.912
300.925
300.937
300.949
300.96
300.972
300.984
300.995
301.006
301.017
300.003
300.01
300.017
300.025
300.033
300.041
300.049
300.057
300.066
300.075
300.085
300.094
300.104
300.115
300.125
300.136
300.147
300.158
300.17
300.181
300.193
300.206
300.218
300.231
300.244
300.257
300.27
300.283
300.297
300.311
300.324
300.338
300.353
300.367
300.381
300.395
300.41
300.424
300.439
300.454
300.468
300.483
300.498
300.513
300.527
300.542
300.557
300.571
300.586
300.6
300.615
300.629
300.644
300.658
300.672
300.686
300.7
300.714
300.728
300.742
300.755
300.769
300.782
300.795
300.808
300.821
300.834
300.847
300.859
300.872
300.884
300.896
300.908
300.92
300.931
300.943
300.954
300.965
300.976
300.987
300.998
300.003
300.01
300.017
300.025
300.032
300.04
300.049
300.057
300.066
300.075
300.084
300.094
300.104
300.114
300.125
300.135
300.146
300.157
300.169
300.181
300.192
300.205
300.217
300.23
300.242
300.255
300.268
300.282
300.295
300.309
300.322
300.336
300.35
300.364
300.378
300.392
300.407
300.421
300.435
300.45
300.464
300.479
300.493
300.508
300.522
300.537
300.551
300.566
300.58
300.594
300.608
300.623
300.637
300.651
300.665
300.678
300.692
300.706
300.719
300.733
300.746
300.759
300.772
300.785
300.798
300.811
300.823
300.836
300.848
300.86
300.872
300.884
300.895
300.907
300.918
300.93
300.941
300.952
300.962
300.973
300.984
300.003
300.01
300.017
300.025
300.032
300.04
300.048
300.057
300.066
300.075
300.084
300.094
300.104
300.114
300.124
300.135
300.146
300.157
300.168
300.18
300.192
300.204
300.216
300.229
300.241
300.254
300.267
300.28
300.294
300.307
300.321
300.334
300.348
300.362
300.376
300.39
300.404
300.419
300.433
300.447
300.461
300.476
300.49
300.504
300.519
300.533
300.547
300.562
300.576
300.59
300.604
300.618
300.632
300.646
300.659
300.673
300.687
300.7
300.713
300.727
300.74
300.753
300.766
300.778
300.791
300.803
300.816
300.828
300.84
300.852
300.864
300.875
300.887
300.898
300.91
300.921
300.932
300.942
300.953
300.963
300.974
300.003
300.01
300.017
300.025
300.032
300.04
300.048
300.057
300.065
300.075
300.084
300.093
300.103
300.113
300.124
300.134
300.145
300.156
300.168
300.179
300.191
300.203
300.216
300.228
300.241
300.253
300.266
300.28
300.293
300.306
300.32
300.333
300.347
300.361
300.375
300.389
300.403
300.417
300.431
300.446
300.46
300.474
300.488
300.503
300.517
300.531
300.545
300.559
300.573
300.587
300.601
300.615
300.629
300.643
300.656
300.67
300.683
300.697
300.71
300.723
300.736
300.749
300.762
300.774
300.787
300.799
300.812
300.824
300.836
300.847
300.859
300.871
300.882
300.893
300.905
300.916
300.926
300.937
300.948
300.958
300.968
300.003
300.01
300.017
300.025
300.032
300.04
300.048
300.057
300.065
300.074
300.084
300.093
300.103
300.113
300.124
300.134
300.145
300.156
300.168
300.179
300.191
300.203
300.215
300.228
300.24
300.253
300.266
300.279
300.292
300.306
300.319
300.333
300.347
300.361
300.374
300.388
300.403
300.417
300.431
300.445
300.459
300.473
300.488
300.502
300.516
300.53
300.544
300.558
300.572
300.586
300.6
300.614
300.628
300.642
300.655
300.669
300.682
300.696
300.709
300.722
300.735
300.748
300.76
300.773
300.786
300.798
300.81
300.822
300.834
300.846
300.858
300.869
300.881
300.892
300.903
300.914
300.925
300.935
300.946
300.956
300.966
300.003
300.01
300.017
300.024
300.032
300.04
300.048
300.057
300.065
300.074
300.084
300.093
300.103
300.113
300.123
300.134
300.145
300.156
300.167
300.179
300.191
300.203
300.215
300.228
300.24
300.253
300.266
300.279
300.292
300.306
300.319
300.333
300.347
300.361
300.375
300.389
300.403
300.417
300.431
300.445
300.459
300.474
300.488
300.502
300.516
300.53
300.544
300.559
300.573
300.587
300.601
300.614
300.628
300.642
300.656
300.669
300.683
300.696
300.709
300.722
300.735
300.748
300.761
300.773
300.786
300.798
300.811
300.823
300.835
300.847
300.858
300.87
300.881
300.892
300.904
300.915
300.925
300.936
300.947
300.957
300.967
300.003
300.01
300.017
300.024
300.032
300.04
300.048
300.057
300.065
300.074
300.084
300.093
300.103
300.113
300.123
300.134
300.145
300.156
300.168
300.179
300.191
300.203
300.215
300.228
300.24
300.253
300.266
300.279
300.293
300.306
300.32
300.333
300.347
300.361
300.375
300.389
300.403
300.417
300.431
300.445
300.46
300.474
300.488
300.502
300.517
300.531
300.545
300.559
300.573
300.587
300.601
300.615
300.629
300.643
300.656
300.67
300.683
300.697
300.71
300.723
300.736
300.749
300.762
300.775
300.787
300.799
300.812
300.824
300.836
300.848
300.859
300.871
300.882
300.894
300.905
300.916
300.927
300.937
300.948
300.958
300.969
302.786
302.907
303.008
303.097
303.177
303.249
303.314
303.375
303.43
303.482
303.53
303.574
303.616
303.654
303.69
303.724
303.756
303.786
303.815
303.842
303.869
303.895
303.922
303.949
303.977
304.005
304.033
304.061
304.089
304.116
304.143
304.17
304.197
304.224
304.251
304.277
304.303
304.329
304.355
304.38
304.406
304.431
304.456
304.482
304.507
304.532
304.557
304.582
304.607
304.632
304.657
304.682
304.706
304.731
304.755
304.78
304.804
304.829
304.853
304.878
304.902
304.926
304.951
304.975
304.999
305.024
305.048
305.072
305.096
305.121
305.145
305.169
305.193
305.218
305.242
305.266
305.291
305.315
305.339
305.364
305.388
305.412
305.437
305.461
305.486
305.51
305.535
305.559
305.584
305.609
305.633
305.658
305.683
305.708
305.733
305.758
305.782
305.807
305.833
305.858
305.883
305.908
305.933
305.958
305.984
306.009
306.035
306.06
306.085
306.111
306.136
306.162
306.187
306.213
306.239
306.264
306.29
306.315
306.34
306.366
306.391
306.416
306.441
306.466
306.491
306.515
306.539
306.563
306.587
306.61
306.633
306.655
306.676
306.697
306.718
306.737
306.756
306.773
306.79
306.805
306.819
306.831
306.841
306.85
306.856
306.861
306.862
306.861
306.857
306.85
306.838
306.824
306.804
306.779
306.748
306.712
306.673
306.624
306.554
306.447
306.282
302.72
302.828
302.925
303.012
303.091
303.163
303.23
303.291
303.348
303.4
303.45
303.495
303.538
303.579
303.616
303.652
303.685
303.717
303.748
303.777
303.805
303.833
303.861
303.89
303.918
303.947
303.975
304.003
304.032
304.059
304.087
304.115
304.142
304.169
304.196
304.223
304.249
304.275
304.301
304.327
304.353
304.379
304.405
304.43
304.456
304.481
304.507
304.532
304.557
304.582
304.607
304.632
304.657
304.682
304.707
304.732
304.756
304.781
304.806
304.83
304.855
304.88
304.904
304.929
304.953
304.978
305.002
305.027
305.051
305.076
305.1
305.125
305.149
305.173
305.198
305.222
305.247
305.271
305.296
305.321
305.345
305.37
305.394
305.419
305.444
305.469
305.493
305.518
305.543
305.568
305.593
305.618
305.643
305.668
305.693
305.718
305.743
305.768
305.794
305.819
305.844
305.87
305.895
305.921
305.946
305.972
305.998
306.023
306.049
306.075
306.1
306.126
306.152
306.178
306.204
306.229
306.255
306.281
306.307
306.332
306.358
306.383
306.408
306.434
306.459
306.483
306.508
306.532
306.556
306.579
306.602
306.625
306.647
306.668
306.689
306.708
306.727
306.745
306.762
306.777
306.791
306.804
306.814
306.823
306.83
306.834
306.836
306.835
306.831
306.823
306.812
306.797
306.777
306.752
306.72
306.683
306.642
306.59
306.516
306.406
306.239
302.662
302.757
302.847
302.93
303.007
303.078
303.145
303.206
303.263
303.317
303.367
303.414
303.458
303.5
303.539
303.576
303.612
303.645
303.677
303.708
303.738
303.768
303.797
303.826
303.855
303.884
303.913
303.942
303.971
303.999
304.027
304.055
304.083
304.111
304.138
304.165
304.192
304.218
304.245
304.271
304.298
304.324
304.35
304.376
304.401
304.427
304.453
304.478
304.504