/*--------------------------------*- C++ -*----------------------------------*\
| =========                 |                                                 |
| \\      /  F ield         | OpenFOAM: The Open Source CFD Toolbox           |
|  \\    /   O peration     | Version:  2112                                  |
|   \\  /    A nd           | Website:  www.openfoam.com                      |
|    \\/     M anipulation  |                                                 |
\*---------------------------------------------------------------------------*/
FoamFile
{
    version     2.0;
    format      ascii;
    arch        "LSB;label=32;scalar=64";
    class       volVectorField;
    location    "10";
    object      U;
}
// * * * * * * * * * * * * * * * * * * * * * * * * * * * * * * * * * * * * * //

dimensions      [0 1 -1 0 0 0 0];

internalField   nonuniform List<vector> 
12013
(
(0.100039 -1.1038e-05 0)
(0.100202 -2.04668e-05 0)
(0.100465 -2.9247e-05 0)
(0.100806 -3.73722e-05 0)
(0.101218 -4.50279e-05 0)
(0.101695 -5.23185e-05 0)
(0.102231 -5.93094e-05 0)
(0.10282 -6.60531e-05 0)
(0.103458 -7.25896e-05 0)
(0.104141 -7.89494e-05 0)
(0.104866 -8.51576e-05 0)
(0.10563 -9.12336e-05 0)
(0.106429 -9.71937e-05 0)
(0.107262 -0.000103051 0)
(0.108126 -0.000108815 0)
(0.109018 -0.000114496 0)
(0.109936 -0.000120099 0)
(0.110879 -0.00012563 0)
(0.111844 -0.000131092 0)
(0.112831 -0.000136488 0)
(0.113836 -0.00014182 0)
(0.114859 -0.000147089 0)
(0.115899 -0.000152294 0)
(0.116953 -0.000157435 0)
(0.11802 -0.000162509 0)
(0.119099 -0.000167515 0)
(0.120188 -0.000172449 0)
(0.121287 -0.000177309 0)
(0.122393 -0.000182089 0)
(0.123507 -0.000186784 0)
(0.124626 -0.000191391 0)
(0.125749 -0.0001959 0)
(0.126876 -0.000200307 0)
(0.128005 -0.000204603 0)
(0.129134 -0.00020878 0)
(0.130264 -0.000212827 0)
(0.131392 -0.000216735 0)
(0.132518 -0.000220491 0)
(0.133641 -0.000224084 0)
(0.134758 -0.000227498 0)
(0.135871 -0.000230718 0)
(0.136976 -0.000233726 0)
(0.138073 -0.000236503 0)
(0.139161 -0.000239027 0)
(0.140239 -0.000241273 0)
(0.141305 -0.000243215 0)
(0.142358 -0.000244819 0)
(0.143397 -0.000246052 0)
(0.14442 -0.000246872 0)
(0.145426 -0.000247235 0)
(0.146413 -0.000247088 0)
(0.14738 -0.000246368 0)
(0.148324 -0.000245008 0)
(0.149244 -0.000242923 0)
(0.150139 -0.000240019 0)
(0.151004 -0.000236182 0)
(0.151838 -0.000231278 0)
(0.152638 -0.000225147 0)
(0.1534 -0.000217595 0)
(0.154121 -0.000208389 0)
(0.154796 -0.000197242 0)
(0.155421 -0.0001838 0)
(0.15599 -0.000167621 0)
(0.156495 -0.000148149 0)
(0.156929 -0.000124669 0)
(0.157281 -9.62585e-05 0)
(0.157539 -6.17038e-05 0)
(0.157688 -1.93825e-05 0)
(0.157709 3.29235e-05 0)
(0.157578 9.83642e-05 0)
(0.15726 0.000181452 0)
(0.156714 0.000288831 0)
(0.155879 0.00043059 0)
(0.15467 0.000622568 0)
(0.152963 0.0008905 0)
(0.150574 0.0012777 0)
(0.147213 0.00185985 0)
(0.142401 0.00277736 0)
(0.135334 0.00433461 0)
(0.124891 0.00743033 0)
(0.112898 0.0163084 0)
(0.100036 -3.37032e-05 0)
(0.100198 -6.27511e-05 0)
(0.10046 -8.97172e-05 0)
(0.1008 -0.000114653 0)
(0.101212 -0.000138149 0)
(0.101688 -0.000160522 0)
(0.102222 -0.000181973 0)
(0.10281 -0.000202664 0)
(0.103447 -0.000222718 0)
(0.104129 -0.000242229 0)
(0.104853 -0.000261273 0)
(0.105616 -0.000279911 0)
(0.106415 -0.000298191 0)
(0.107246 -0.000316155 0)
(0.108108 -0.000333834 0)
(0.108999 -0.000351255 0)
(0.109916 -0.000368436 0)
(0.110858 -0.000385395 0)
(0.111822 -0.000402143 0)
(0.112807 -0.000418688 0)
(0.113811 -0.000435035 0)
(0.114833 -0.000451186 0)
(0.115871 -0.000467142 0)
(0.116923 -0.000482899 0)
(0.117989 -0.000498452 0)
(0.119066 -0.000513794 0)
(0.120154 -0.000528916 0)
(0.121251 -0.000543807 0)
(0.122356 -0.000558454 0)
(0.123467 -0.000572842 0)
(0.124585 -0.000586954 0)
(0.125706 -0.00060077 0)
(0.126831 -0.000614269 0)
(0.127958 -0.000627428 0)
(0.129085 -0.000640219 0)
(0.130213 -0.000652614 0)
(0.131339 -0.00066458 0)
(0.132463 -0.000676082 0)
(0.133583 -0.00068708 0)
(0.134699 -0.000697532 0)
(0.135809 -0.000707387 0)
(0.136912 -0.000716593 0)
(0.138007 -0.00072509 0)
(0.139092 -0.000732812 0)
(0.140167 -0.000739682 0)
(0.141231 -0.000745617 0)
(0.142282 -0.000750521 0)
(0.143318 -0.000754286 0)
(0.144338 -0.00075679 0)
(0.145342 -0.000757893 0)
(0.146327 -0.000757433 0)
(0.147291 -0.000755227 0)
(0.148233 -0.000751057 0)
(0.149151 -0.000744677 0)
(0.150043 -0.000735792 0)
(0.150906 -0.000724059 0)
(0.151738 -0.000709069 0)
(0.152537 -0.000690335 0)
(0.153298 -0.000667272 0)
(0.154018 -0.000639171 0)
(0.154693 -0.000605164 0)
(0.155318 -0.000564182 0)
(0.155888 -0.000514891 0)
(0.156396 -0.000455614 0)
(0.156834 -0.000384211 0)
(0.157192 -0.000297917 0)
(0.15746 -0.000193113 0)
(0.157623 -6.49854e-05 0)
(0.157664 9.29868e-05 0)
(0.15756 0.000289913 0)
(0.157283 0.000538731 0)
(0.156797 0.000858219 0)
(0.156052 0.00127637 0)
(0.154982 0.00183603 0)
(0.1535 0.0026046 0)
(0.151483 0.00369065 0)
(0.148769 0.00527193 0)
(0.14513 0.00764231 0)
(0.140293 0.011292 0)
(0.13427 0.0169502 0)
(0.129397 0.0250321 0)
(0.100033 -5.72906e-05 0)
(0.100193 -0.00010764 0)
(0.100453 -0.000154085 0)
(0.100791 -0.00019702 0)
(0.1012 -0.000237467 0)
(0.101674 -0.000275974 0)
(0.102206 -0.000312889 0)
(0.102792 -0.000348494 0)
(0.103427 -0.000382998 0)
(0.104107 -0.000416565 0)
(0.104829 -0.000449327 0)
(0.10559 -0.000481388 0)
(0.106386 -0.000512833 0)
(0.107215 -0.000543731 0)
(0.108075 -0.000574137 0)
(0.108963 -0.000604096 0)
(0.109878 -0.000633644 0)
(0.110817 -0.000662806 0)
(0.111778 -0.000691603 0)
(0.11276 -0.00072005 0)
(0.113762 -0.000748155 0)
(0.11478 -0.000775921 0)
(0.115815 -0.000803348 0)
(0.116864 -0.000830432 0)
(0.117927 -0.000857163 0)
(0.119001 -0.000883529 0)
(0.120085 -0.000909515 0)
(0.121179 -0.000935102 0)
(0.12228 -0.000960267 0)
(0.123388 -0.000984984 0)
(0.124502 -0.00100922 0)
(0.125619 -0.00103295 0)
(0.12674 -0.00105613 0)
(0.127863 -0.00107873 0)
(0.128987 -0.00110069 0)
(0.13011 -0.00112196 0)
(0.131232 -0.0011425 0)
(0.132351 -0.00116223 0)
(0.133467 -0.0011811 0)
(0.134578 -0.00119902 0)
(0.135683 -0.00121592 0)
(0.136782 -0.0012317 0)
(0.137872 -0.00124626 0)
(0.138953 -0.00125948 0)
(0.140023 -0.00127125 0)
(0.141081 -0.0012814 0)
(0.142127 -0.00128978 0)
(0.143158 -0.00129621 0)
(0.144174 -0.00130047 0)
(0.145172 -0.00130233 0)
(0.146152 -0.00130151 0)
(0.147111 -0.0012977 0)
(0.148048 -0.00129053 0)
(0.148962 -0.00127958 0)
(0.149849 -0.00126436 0)
(0.150708 -0.00124427 0)
(0.151536 -0.00121865 0)
(0.15233 -0.00118665 0)
(0.153088 -0.00114731 0)
(0.153806 -0.00109943 0)
(0.15448 -0.00104156 0)
(0.155106 -0.000971935 0)
(0.155677 -0.000888341 0)
(0.156189 -0.000788017 0)
(0.156634 -0.000667465 0)
(0.157003 -0.000522198 0)
(0.157287 -0.000346391 0)
(0.157474 -0.000132384 0)
(0.157548 0.000130037 0)
(0.157492 0.00045483 0)
(0.157285 0.000861388 0)
(0.156898 0.00137708 0)
(0.156302 0.00204123 0)
(0.155455 0.00291128 0)
(0.154315 0.0040723 0)
(0.152837 0.00565108 0)
(0.150987 0.00783489 0)
(0.148772 0.0108911 0)
(0.146307 0.0151724 0)
(0.144026 0.0209909 0)
(0.14322 0.0278363 0)
(0.10003 -8.15994e-05 0)
(0.100187 -0.000155014 0)
(0.100443 -0.000222282 0)
(0.100778 -0.000284503 0)
(0.101184 -0.000343094 0)
(0.101655 -0.000398855 0)
(0.102184 -0.000452303 0)
(0.102767 -0.000503845 0)
(0.103398 -0.000553788 0)
(0.104075 -0.000602369 0)
(0.104794 -0.000649779 0)
(0.105551 -0.000696171 0)
(0.106343 -0.000741666 0)
(0.107169 -0.000786366 0)
(0.108025 -0.000830351 0)
(0.108909 -0.000873684 0)
(0.10982 -0.000916418 0)
(0.110755 -0.000958591 0)
(0.111712 -0.00100023 0)
(0.11269 -0.00104136 0)
(0.113687 -0.00108199 0)
(0.114701 -0.00112213 0)
(0.115731 -0.00116178 0)
(0.116775 -0.00120092 0)
(0.117833 -0.00123954 0)
(0.118902 -0.00127764 0)
(0.119981 -0.00131518 0)
(0.121069 -0.00135214 0)
(0.122165 -0.00138848 0)
(0.123268 -0.00142417 0)
(0.124375 -0.00145917 0)
(0.125487 -0.00149342 0)
(0.126602 -0.00152688 0)
(0.127719 -0.00155948 0)
(0.128836 -0.00159115 0)
(0.129953 -0.00162184 0)
(0.131069 -0.00165144 0)
(0.132181 -0.00167989 0)
(0.133291 -0.00170707 0)
(0.134395 -0.00173289 0)
(0.135493 -0.00175722 0)
(0.136584 -0.00177993 0)
(0.137667 -0.00180087 0)
(0.13874 -0.00181987 0)
(0.139803 -0.00183676 0)
(0.140854 -0.00185133 0)
(0.141892 -0.00186334 0)
(0.142916 -0.00187253 0)
(0.143924 -0.00187859 0)
(0.144915 -0.0018812 0)
(0.145887 -0.00187996 0)
(0.146839 -0.00187441 0)
(0.147769 -0.00186405 0)
(0.148675 -0.00184828 0)
(0.149556 -0.00182639 0)
(0.150408 -0.00179756 0)
(0.151231 -0.00176083 0)
(0.15202 -0.00171505 0)
(0.152774 -0.00165884 0)
(0.153489 -0.00159057 0)
(0.154162 -0.00150823 0)
(0.154788 -0.00140938 0)
(0.155363 -0.00129102 0)
(0.155881 -0.0011494 0)
(0.156337 -0.000979845 0)
(0.156723 -0.000776404 0)
(0.157031 -0.000531464 0)
(0.157253 -0.00023517 0)
(0.157376 0.00012534 0)
(0.15739 0.000567099 0)
(0.157279 0.00111307 0)
(0.15703 0.00179444 0)
(0.156627 0.00265385 0)
(0.15606 0.00374985 0)
(0.155323 0.00516265 0)
(0.154431 0.00700038 0)
(0.153432 0.00940266 0)
(0.15244 0.0125321 0)
(0.151682 0.0165304 0)
(0.151548 0.0213654 0)
(0.152606 0.0263897 0)
(0.100027 -0.00010664 0)
(0.100181 -0.000204788 0)
(0.100433 -0.000294272 0)
(0.100763 -0.000377132 0)
(0.101165 -0.000455132 0)
(0.101631 -0.000529338 0)
(0.102156 -0.00060045 0)
(0.102734 -0.000669011 0)
(0.103361 -0.000735434 0)
(0.104033 -0.000800037 0)
(0.104747 -0.000863072 0)
(0.105499 -0.000924745 0)
(0.106287 -0.000985219 0)
(0.107107 -0.00104463 0)
(0.107958 -0.00110308 0)
(0.108837 -0.00116066 0)
(0.109742 -0.00121743 0)
(0.110671 -0.00127345 0)
(0.111623 -0.00132876 0)
(0.112595 -0.00138338 0)
(0.113586 -0.00143733 0)
(0.114594 -0.00149062 0)
(0.115617 -0.00154324 0)
(0.116655 -0.00159519 0)
(0.117706 -0.00164645 0)
(0.118768 -0.00169699 0)
(0.11984 -0.00174679 0)
(0.120921 -0.0017958 0)
(0.12201 -0.00184399 0)
(0.123105 -0.00189131 0)
(0.124205 -0.00193769 0)
(0.125309 -0.00198307 0)
(0.126415 -0.00202739 0)
(0.127524 -0.00207056 0)
(0.128633 -0.0021125 0)
(0.129741 -0.0021531 0)
(0.130848 -0.00219227 0)
(0.131952 -0.00222989 0)
(0.133052 -0.00226582 0)
(0.134147 -0.00229993 0)
(0.135236 -0.00233205 0)
(0.136317 -0.00236202 0)
(0.137391 -0.00238964 0)
(0.138454 -0.00241468 0)
(0.139508 -0.00243692 0)
(0.140549 -0.00245607 0)
(0.141577 -0.00247183 0)
(0.142591 -0.00248386 0)
(0.143589 -0.00249177 0)
(0.14457 -0.0024951 0)
(0.145532 -0.00249336 0)
(0.146474 -0.00248597 0)
(0.147395 -0.00247225 0)
(0.148293 -0.00245143 0)
(0.149165 -0.00242262 0)
(0.150009 -0.00238476 0)
(0.150825 -0.00233662 0)
(0.151608 -0.00227675 0)
(0.152358 -0.00220341 0)
(0.15307 -0.00211454 0)
(0.153742 -0.00200766 0)
(0.15437 -0.00187974 0)
(0.15495 -0.00172713 0)
(0.155478 -0.00154529 0)
(0.15595 -0.00132863 0)
(0.156359 -0.00107017 0)
(0.156701 -0.000761117 0)
(0.156969 -0.000390329 0)
(0.157157 5.63696e-05 0)
(0.157258 0.000596881 0)
(0.157267 0.0012546 0)
(0.15718 0.00205976 0)
(0.156998 0.00305128 0)
(0.156729 0.00427877 0)
(0.156397 0.00580411 0)
(0.156045 0.00770111 0)
(0.155753 0.0100498 0)
(0.155652 0.012918 0)
(0.155937 0.0163158 0)
(0.156862 0.0200984 0)
(0.158655 0.0237933 0)
(0.100024 -0.000132426 0)
(0.100175 -0.000256884 0)
(0.100421 -0.000370009 0)
(0.100746 -0.000474907 0)
(0.101142 -0.000573642 0)
(0.101603 -0.000667546 0)
(0.102122 -0.000757514 0)
(0.102694 -0.000844235 0)
(0.103316 -0.000928234 0)
(0.103982 -0.00100992 0)
(0.10469 -0.0010896 0)
(0.105435 -0.00116755 0)
(0.106217 -0.00124397 0)
(0.10703 -0.00131903 0)
(0.107875 -0.00139287 0)
(0.108747 -0.0014656 0)
(0.109645 -0.0015373 0)
(0.110567 -0.00160803 0)
(0.111511 -0.00167786 0)
(0.112475 -0.0017468 0)
(0.113458 -0.00181489 0)
(0.114458 -0.00188212 0)
(0.115474 -0.00194851 0)
(0.116503 -0.00201403 0)
(0.117545 -0.00207866 0)
(0.118599 -0.00214238 0)
(0.119662 -0.00220515 0)
(0.120734 -0.00226691 0)
(0.121813 -0.00232762 0)
(0.122898 -0.00238721 0)
(0.123989 -0.00244561 0)
(0.125083 -0.00250273 0)
(0.126179 -0.00255849 0)
(0.127277 -0.00261279 0)
(0.128376 -0.00266552 0)
(0.129473 -0.00271655 0)
(0.130569 -0.00276576 0)
(0.131662 -0.00281299 0)
(0.13275 -0.00285809 0)
(0.133834 -0.00290087 0)
(0.134911 -0.00294114 0)
(0.135981 -0.00297868 0)
(0.137042 -0.00301324 0)
(0.138094 -0.00304456 0)
(0.139135 -0.00307234 0)
(0.140164 -0.00309623 0)
(0.14118 -0.00311586 0)
(0.142182 -0.0031308 0)
(0.143168 -0.00314057 0)
(0.144137 -0.00314463 0)
(0.145088 -0.00314236 0)
(0.146018 -0.00313304 0)
(0.146928 -0.00311585 0)
(0.147815 -0.00308988 0)
(0.148677 -0.00305402 0)
(0.149513 -0.00300702 0)
(0.150321 -0.00294741 0)
(0.151098 -0.00287346 0)
(0.151842 -0.00278314 0)
(0.152552 -0.00267404 0)
(0.153224 -0.00254327 0)
(0.153856 -0.0023874 0)
(0.154445 -0.00220227 0)
(0.154987 -0.00198286 0)
(0.155479 -0.00172303 0)
(0.155919 -0.00141529 0)
(0.156303 -0.00105043 0)
(0.156627 -0.000617085 0)
(0.156891 -0.000101251 0)
(0.157093 0.000514072 0)
(0.157234 0.00124976 0)
(0.157319 0.00213147 0)
(0.157361 0.00318996 0)
(0.157381 0.00446109 0)
(0.157411 0.00598468 0)
(0.157504 0.00780096 0)
(0.15774 0.00994261 0)
(0.158223 0.0124188 0)
(0.159089 0.0151861 0)
(0.160475 0.0181032 0)
(0.162462 0.0208778 0)
(0.100021 -0.000158971 0)
(0.100168 -0.000311241 0)
(0.100409 -0.000449449 0)
(0.100728 -0.000577806 0)
(0.101117 -0.000698653 0)
(0.101571 -0.000813563 0)
(0.102083 -0.000923634 0)
(0.102649 -0.00102971 0)
(0.103263 -0.00113243 0)
(0.103922 -0.0012323 0)
(0.104622 -0.00132971 0)
(0.10536 -0.00142497 0)
(0.106134 -0.00151835 0)
(0.106939 -0.00161005 0)
(0.107775 -0.00170024 0)
(0.108639 -0.00178904 0)
(0.109528 -0.00187658 0)
(0.110442 -0.00196293 0)
(0.111377 -0.00204814 0)
(0.112332 -0.00213226 0)
(0.113305 -0.00221532 0)
(0.114295 -0.00229732 0)
(0.115301 -0.00237826 0)
(0.11632 -0.00245813 0)
(0.117352 -0.00253691 0)
(0.118394 -0.00261454 0)
(0.119447 -0.00269099 0)
(0.120507 -0.0027662 0)
(0.121575 -0.0028401 0)
(0.122649 -0.00291262 0)
(0.123727 -0.00298366 0)
(0.124809 -0.00305312 0)
(0.125893 -0.0031209 0)
(0.126979 -0.00318688 0)
(0.128065 -0.00325092 0)
(0.129149 -0.00331287 0)
(0.130232 -0.00337257 0)
(0.131311 -0.00342985 0)
(0.132386 -0.00348451 0)
(0.133456 -0.00353633 0)
(0.134519 -0.00358507 0)
(0.135575 -0.00363047 0)
(0.136622 -0.00367224 0)
(0.13766 -0.00371005 0)
(0.138686 -0.00374355 0)
(0.139701 -0.00377233 0)
(0.140703 -0.00379594 0)
(0.14169 -0.00381388 0)
(0.142662 -0.00382557 0)
(0.143618 -0.00383038 0)
(0.144555 -0.00382757 0)
(0.145473 -0.00381632 0)
(0.14637 -0.00379568 0)
(0.147245 -0.00376457 0)
(0.148096 -0.00372174 0)
(0.148922 -0.00366575 0)
(0.149722 -0.00359494 0)
(0.150492 -0.00350736 0)
(0.151233 -0.00340075 0)
(0.151941 -0.00327245 0)
(0.152615 -0.00311933 0)
(0.153253 -0.00293769 0)
(0.153852 -0.00272315 0)
(0.154412 -0.00247047 0)
(0.154931 -0.00217345 0)
(0.155406 -0.00182466 0)
(0.155838 -0.0014152 0)
(0.156226 -0.000934522 0)
(0.156572 -0.000370062 0)
(0.15688 0.000292932 0)
(0.157156 0.00107086 0)
(0.157411 0.00198293 0)
(0.157662 0.00305018 0)
(0.157933 0.00429445 0)
(0.15826 0.00573617 0)
(0.158691 0.00739042 0)
(0.159287 0.00926046 0)
(0.160122 0.0113276 0)
(0.161276 0.0135371 0)
(0.162815 0.0157816 0)
(0.164757 0.0178915 0)
(0.100018 -0.000186306 0)
(0.100162 -0.00036782 0)
(0.100396 -0.000532556 0)
(0.100708 -0.000685806 0)
(0.10109 -0.00083017 0)
(0.101537 -0.000967437 0)
(0.102041 -0.00109891 0)
(0.102598 -0.00122558 0)
(0.103204 -0.00134822 0)
(0.103854 -0.00146742 0)
(0.104545 -0.00158366 0)
(0.105274 -0.00169732 0)
(0.106038 -0.00180871 0)
(0.106834 -0.00191806 0)
(0.107661 -0.00202559 0)
(0.108514 -0.00213145 0)
(0.109393 -0.00223577 0)
(0.110296 -0.00233864 0)
(0.11122 -0.00244014 0)
(0.112164 -0.00254031 0)
(0.113126 -0.0026392 0)
(0.114105 -0.00273679 0)
(0.115098 -0.00283311 0)
(0.116105 -0.00292812 0)
(0.117125 -0.00302179 0)
(0.118155 -0.00311409 0)
(0.119194 -0.00320495 0)
(0.120242 -0.0032943 0)
(0.121296 -0.00338206 0)
(0.122356 -0.00346815 0)
(0.12342 -0.00355245 0)
(0.124488 -0.00363485 0)
(0.125558 -0.00371522 0)
(0.126629 -0.00379341 0)
(0.127699 -0.00386926 0)
(0.128769 -0.00394261 0)
(0.129836 -0.00401326 0)
(0.1309 -0.00408099 0)
(0.131959 -0.00414558 0)
(0.133013 -0.00420678 0)
(0.13406 -0.00426431 0)
(0.1351 -0.00431785 0)
(0.136131 -0.00436707 0)
(0.137152 -0.00441158 0)
(0.138163 -0.00445099 0)
(0.139161 -0.0044848 0)
(0.140147 -0.00451252 0)
(0.141118 -0.00453356 0)
(0.142074 -0.00454727 0)
(0.143014 -0.00455291 0)
(0.143936 -0.00454967 0)
(0.14484 -0.00453661 0)
(0.145723 -0.00451267 0)
(0.146585 -0.00447665 0)
(0.147425 -0.00442718 0)
(0.148241 -0.00436268 0)
(0.149032 -0.00428134 0)
(0.149796 -0.00418108 0)
(0.150533 -0.0040595 0)
(0.151241 -0.00391382 0)
(0.151918 -0.00374082 0)
(0.152564 -0.00353674 0)
(0.153178 -0.00329722 0)
(0.153759 -0.0030172 0)
(0.154306 -0.00269079 0)
(0.154821 -0.00231115 0)
(0.155305 -0.00187042 0)
(0.15576 -0.00135958 0)
(0.15619 -0.000768415 0)
(0.156602 -8.55067e-05 0)
(0.157006 0.00070113 0)
(0.157414 0.00160342 0)
(0.157844 0.00263345 0)
(0.158321 0.00380155 0)
(0.158873 0.00511414 0)
(0.15954 0.00657083 0)
(0.160363 0.00816033 0)
(0.161388 0.00985537 0)
(0.162658 0.0116074 0)
(0.164199 0.0133429 0)
(0.166009 0.0149657 0)
(0.100015 -0.000214473 0)
(0.100155 -0.000426601 0)
(0.100384 -0.000619309 0)
(0.100688 -0.000798882 0)
(0.101062 -0.000968186 0)
(0.1015 -0.00112919 0)
(0.101995 -0.00128339 0)
(0.102543 -0.00143194 0)
(0.103139 -0.00157573 0)
(0.103779 -0.00171547 0)
(0.10446 -0.00185169 0)
(0.105178 -0.00198486 0)
(0.105931 -0.00211533 0)
(0.106716 -0.00224339 0)
(0.107531 -0.00236928 0)
(0.108373 -0.00249318 0)
(0.10924 -0.00261525 0)
(0.11013 -0.00273559 0)
(0.111042 -0.00285429 0)
(0.111973 -0.00297141 0)
(0.112922 -0.00308699 0)
(0.113887 -0.00320103 0)
(0.114867 -0.00331353 0)
(0.11586 -0.00342448 0)
(0.116865 -0.00353383 0)
(0.117881 -0.00364153 0)
(0.118905 -0.00374751 0)
(0.119937 -0.0038517 0)
(0.120976 -0.00395399 0)
(0.122021 -0.00405429 0)
(0.123069 -0.00415246 0)
(0.12412 -0.00424838 0)
(0.125174 -0.00434188 0)
(0.126228 -0.00443281 0)
(0.127281 -0.00452097 0)
(0.128334 -0.00460617 0)
(0.129383 -0.00468819 0)
(0.130429 -0.00476677 0)
(0.131471 -0.00484167 0)
(0.132507 -0.00491257 0)
(0.133536 -0.00497918 0)
(0.134557 -0.00504113 0)
(0.13557 -0.00509803 0)
(0.136573 -0.00514947 0)
(0.137565 -0.00519496 0)
(0.138545 -0.00523399 0)
(0.139513 -0.00526598 0)
(0.140467 -0.00529027 0)
(0.141405 -0.00530615 0)
(0.142328 -0.00531281 0)
(0.143234 -0.00530935 0)
(0.144122 -0.00529475 0)
(0.144991 -0.00526788 0)
(0.14584 -0.00522743 0)
(0.146668 -0.00517195 0)
(0.147473 -0.00509979 0)
(0.148256 -0.00500907 0)
(0.149014 -0.00489766 0)
(0.149748 -0.00476312 0)
(0.150456 -0.00460269 0)
(0.151139 -0.00441321 0)
(0.151794 -0.0041911 0)
(0.152424 -0.00393229 0)
(0.153028 -0.00363215 0)
(0.153607 -0.00328551 0)
(0.154163 -0.00288655 0)
(0.154699 -0.00242886 0)
(0.155219 -0.00190544 0)
(0.155729 -0.00130885 0)
(0.156237 -0.00063131 0)
(0.156753 0.000135088 0)
(0.157291 0.000996352 0)
(0.157865 0.00195709 0)
(0.158497 0.00301961 0)
(0.159209 0.00418189 0)
(0.160028 0.00543582 0)
(0.160979 0.0067652 0)
(0.16209 0.00814383 0)
(0.16338 0.00953428 0)
(0.164857 0.0108885 0)
(0.166511 0.0121521 0)
(0.100011 -0.000243518 0)
(0.100149 -0.000487576 0)
(0.100371 -0.000709693 0)
(0.100668 -0.000917011 0)
(0.101033 -0.00111268 0)
(0.101461 -0.00129883 0)
(0.101946 -0.00147711 0)
(0.102483 -0.00164885 0)
(0.103068 -0.00181506 0)
(0.103697 -0.00197654 0)
(0.104367 -0.00213394 0)
(0.105073 -0.00228776 0)
(0.105814 -0.00243843 0)
(0.106586 -0.00258627 0)
(0.107388 -0.00273156 0)
(0.108216 -0.00287452 0)
(0.10907 -0.00301533 0)
(0.109946 -0.00315409 0)
(0.110843 -0.00329093 0)
(0.11176 -0.0034259 0)
(0.112694 -0.00355904 0)
(0.113644 -0.00369038 0)
(0.114608 -0.0038199 0)
(0.115585 -0.00394757 0)
(0.116574 -0.00407337 0)
(0.117573 -0.00419722 0)
(0.11858 -0.00431904 0)
(0.119595 -0.00443875 0)
(0.120617 -0.00455624 0)
(0.121643 -0.00467137 0)
(0.122673 -0.00478402 0)
(0.123707 -0.00489402 0)
(0.124741 -0.0050012 0)
(0.125776 -0.00510536 0)
(0.126811 -0.00520631 0)
(0.127844 -0.0053038 0)
(0.128874 -0.00539759 0)
(0.1299 -0.00548741 0)
(0.130922 -0.00557295 0)
(0.131938 -0.00565388 0)
(0.132947 -0.00572986 0)
(0.133948 -0.00580048 0)
(0.134941 -0.00586531 0)
(0.135924 -0.00592389 0)
(0.136896 -0.00597569 0)
(0.137856 -0.00602014 0)
(0.138804 -0.00605661 0)
(0.139739 -0.00608438 0)
(0.140659 -0.00610269 0)
(0.141564 -0.00611068 0)
(0.142452 -0.00610737 0)
(0.143324 -0.00609171 0)
(0.144177 -0.0060625 0)
(0.145012 -0.00601839 0)
(0.145827 -0.00595792 0)
(0.146623 -0.00587939 0)
(0.147397 -0.00578094 0)
(0.14815 -0.00566048 0)
(0.148882 -0.00551566 0)
(0.149592 -0.00534387 0)
(0.15028 -0.00514219 0)
(0.150947 -0.00490738 0)
(0.151593 -0.00463588 0)
(0.15222 -0.00432376 0)
(0.152831 -0.00396678 0)
(0.153427 -0.00356041 0)
(0.154012 -0.00309991 0)
(0.154592 -0.00258042 0)
(0.155173 -0.00199722 0)
(0.155762 -0.00134591 0)
(0.156371 -0.000622703 0)
(0.15701 0.000175487 0)
(0.157692 0.00104802 0)
(0.158433 0.00199168 0)
(0.159248 0.00300042 0)
(0.160155 0.00406362 0)
(0.161167 0.00516531 0)
(0.1623 0.00628391 0)
(0.16356 0.00739256 0)
(0.164947 0.00846055 0)
(0.16645 0.00945683 0)
(0.100008 -0.000273485 0)
(0.100143 -0.000550748 0)
(0.100359 -0.000803694 0)
(0.100647 -0.00104017 0)
(0.101003 -0.00126363 0)
(0.101421 -0.00147632 0)
(0.101895 -0.00168005 0)
(0.102421 -0.00187631 0)
(0.102994 -0.00206623 0)
(0.10361 -0.00225071 0)
(0.104266 -0.00243048 0)
(0.104959 -0.00260612 0)
(0.105686 -0.00277811 0)
(0.106444 -0.00294683 0)
(0.107231 -0.0031126 0)
(0.108045 -0.00327565 0)
(0.108883 -0.00343618 0)
(0.109744 -0.00359435 0)
(0.110625 -0.00375026 0)
(0.111525 -0.00390399 0)
(0.112442 -0.00405558 0)
(0.113375 -0.00420506 0)
(0.114321 -0.00435242 0)
(0.115281 -0.00449763 0)
(0.116251 -0.00464063 0)
(0.117232 -0.00478137 0)
(0.11822 -0.00491974 0)
(0.119216 -0.00505565 0)
(0.120218 -0.00518897 0)
(0.121225 -0.00531956 0)
(0.122235 -0.00544726 0)
(0.123248 -0.00557189 0)
(0.124262 -0.00569327 0)
(0.125276 -0.00581116 0)
(0.126289 -0.00592534 0)
(0.127301 -0.00603555 0)
(0.12831 -0.00614152 0)
(0.129314 -0.00624292 0)
(0.130314 -0.00633945 0)
(0.131308 -0.00643072 0)
(0.132295 -0.00651636 0)
(0.133275 -0.00659593 0)
(0.134245 -0.00666895 0)
(0.135206 -0.00673493 0)
(0.136157 -0.00679329 0)
(0.137096 -0.00684342 0)
(0.138023 -0.00688465 0)
(0.138937 -0.00691623 0)
(0.139837 -0.00693736 0)
(0.140723 -0.00694712 0)
(0.141593 -0.00694454 0)
(0.142448 -0.00692851 0)
(0.143285 -0.00689784 0)
(0.144106 -0.00685119 0)
(0.144909 -0.00678709 0)
(0.145693 -0.00670392 0)
(0.14646 -0.00659991 0)
(0.147208 -0.00647308 0)
(0.147937 -0.00632129 0)
(0.148649 -0.0061422 0)
(0.149343 -0.00593325 0)
(0.150021 -0.00569172 0)
(0.150684 -0.00541467 0)
(0.151334 -0.00509904 0)
(0.151974 -0.00474166 0)
(0.152606 -0.00433933 0)
(0.153235 -0.00388894 0)
(0.153866 -0.00338766 0)
(0.154506 -0.00283306 0)
(0.15516 -0.00222345 0)
(0.155839 -0.0015581 0)
(0.15655 -0.000837445 0)
(0.157306 -6.2954e-05 0)
(0.158116 0.000760573 0)
(0.158989 0.00162373 0)
(0.159937 0.00251628 0)
(0.160965 0.00342478 0)
(0.162081 0.004333 0)
(0.163286 0.00522239 0)
(0.164577 0.0060735 0)
(0.165943 0.00686828 0)
(0.100004 -0.000304412 0)
(0.100136 -0.000616116 0)
(0.100346 -0.000901295 0)
(0.100626 -0.00116833 0)
(0.100972 -0.00142099 0)
(0.101379 -0.00166161 0)
(0.101841 -0.00189218 0)
(0.102355 -0.00211428 0)
(0.102915 -0.0023292 0)
(0.103517 -0.00253794 0)
(0.104159 -0.0027413 0)
(0.104838 -0.00293995 0)
(0.105549 -0.00313441 0)
(0.106292 -0.00332511 0)
(0.107063 -0.00351242 0)
(0.10786 -0.0036966 0)
(0.108681 -0.00387787 0)
(0.109524 -0.00405641 0)
(0.110387 -0.00423234 0)
(0.111269 -0.00440574 0)
(0.112167 -0.00457667 0)
(0.113081 -0.00474514 0)
(0.114009 -0.00491116 0)
(0.114948 -0.00507468 0)
(0.115898 -0.00523565 0)
(0.116858 -0.005394 0)
(0.117826 -0.00554961 0)
(0.118801 -0.00570238 0)
(0.119781 -0.00585217 0)
(0.120766 -0.00599881 0)
(0.121754 -0.00614213 0)
(0.122745 -0.00628193 0)
(0.123736 -0.00641799 0)
(0.124727 -0.00655008 0)
(0.125718 -0.00667794 0)
(0.126706 -0.00680128 0)
(0.127691 -0.00691979 0)
(0.128672 -0.00703315 0)
(0.129649 -0.00714099 0)
(0.130619 -0.00724292 0)
(0.131582 -0.00733852 0)
(0.132538 -0.00742732 0)
(0.133485 -0.00750882 0)
(0.134423 -0.00758248 0)
(0.135351 -0.00764771 0)
(0.136267 -0.00770387 0)
(0.137172 -0.00775025 0)
(0.138064 -0.00778609 0)
(0.138944 -0.00781056 0)
(0.139809 -0.00782274 0)
(0.140661 -0.00782166 0)
(0.141497 -0.00780623 0)
(0.142318 -0.00777527 0)
(0.143124 -0.00772751 0)
(0.143914 -0.00766156 0)
(0.144688 -0.00757592 0)
(0.145446 -0.00746895 0)
(0.146189 -0.00733892 0)
(0.146917 -0.00718396 0)
(0.14763 -0.00700209 0)
(0.14833 -0.00679123 0)
(0.149018 -0.00654923 0)
(0.149695 -0.00627389 0)
(0.150365 -0.00596302 0)
(0.15103 -0.00561452 0)
(0.151693 -0.00522645 0)
(0.152358 -0.00479715 0)
(0.15303 -0.0043254 0)
(0.153714 -0.00381058 0)
(0.154416 -0.00325288 0)
(0.155143 -0.00265349 0)
(0.155902 -0.00201478 0)
(0.156699 -0.00134046 0)
(0.157543 -0.00063541 0)
(0.15844 9.47606e-05 0)
(0.159395 0.000840329 0)
(0.160411 0.00158857 0)
(0.161489 0.00232784 0)
(0.162628 0.00304575 0)
(0.163824 0.00373011 0)
(0.165068 0.00437046 0)
(0.0999996 -0.000336326 0)
(0.10013 -0.000683676 0)
(0.100334 -0.00100246 0)
(0.100604 -0.00130143 0)
(0.10094 -0.00158467 0)
(0.101336 -0.00185463 0)
(0.101786 -0.00211338 0)
(0.102286 -0.00236267 0)
(0.102832 -0.00260389 0)
(0.103419 -0.00283814 0)
(0.104046 -0.00306632 0)
(0.104708 -0.00328914 0)
(0.105403 -0.00350722 0)
(0.106129 -0.00372102 0)
(0.106882 -0.00393094 0)
(0.107661 -0.00413728 0)
(0.108463 -0.0043403 0)
(0.109287 -0.00454018 0)
(0.110131 -0.00473707 0)
(0.110993 -0.00493105 0)
(0.111871 -0.00512218 0)
(0.112764 -0.00531049 0)
(0.11367 -0.00549597 0)
(0.114588 -0.00567858 0)
(0.115516 -0.00585826 0)
(0.116453 -0.00603492 0)
(0.117398 -0.00620845 0)
(0.11835 -0.00637872 0)
(0.119307 -0.00654558 0)
(0.120268 -0.00670885 0)
(0.121232 -0.00686833 0)
(0.122198 -0.0070238 0)
(0.123165 -0.00717504 0)
(0.124132 -0.00732177 0)
(0.125097 -0.00746372 0)
(0.12606 -0.00760058 0)
(0.12702 -0.00773202 0)
(0.127976 -0.00785768 0)
(0.128927 -0.00797717 0)
(0.129871 -0.00809008 0)
(0.13081 -0.00819595 0)
(0.13174 -0.0082943 0)
(0.132662 -0.00838461 0)
(0.133575 -0.00846632 0)
(0.134478 -0.0085388 0)
(0.135371 -0.00860142 0)
(0.136253 -0.00865345 0)
(0.137122 -0.00869413 0)
(0.13798 -0.00872264 0)
(0.138824 -0.00873809 0)
(0.139656 -0.00873951 0)
(0.140474 -0.00872589 0)
(0.141278 -0.00869612 0)
(0.142069 -0.00864902 0)
(0.142846 -0.00858334 0)
(0.143609 -0.00849773 0)
(0.144358 -0.00839081 0)
(0.145095 -0.0082611 0)
(0.14582 -0.00810708 0)
(0.146534 -0.00792719 0)
(0.147238 -0.00771987 0)
(0.147934 -0.00748358 0)
(0.148623 -0.00721684 0)
(0.149309 -0.0069183 0)
(0.149993 -0.00658681 0)
(0.150679 -0.00622148 0)
(0.151371 -0.00582181 0)
(0.152071 -0.00538778 0)
(0.152786 -0.00492 0)
(0.153519 -0.00441979 0)
(0.154275 -0.00388933 0)
(0.155059 -0.00333178 0)
(0.155875 -0.0027513 0)
(0.156728 -0.00215312 0)
(0.157621 -0.00154339 0)
(0.158558 -0.000928818 0)
(0.15954 -0.000315437 0)
(0.160566 0.000287839 0)
(0.161635 0.000872084 0)
(0.162741 0.00142817 0)
(0.163878 0.00194946 0)
(0.0999952 -0.000369243 0)
(0.100123 -0.000753411 0)
(0.100321 -0.00110714 0)
(0.100583 -0.0014394 0)
(0.100908 -0.00175459 0)
(0.101291 -0.00205523 0)
(0.101728 -0.00234352 0)
(0.102214 -0.0026213 0)
(0.102745 -0.0028901 0)
(0.103317 -0.00315111 0)
(0.103927 -0.00340531 0)
(0.104572 -0.0036535 0)
(0.105249 -0.00389632 0)
(0.105955 -0.00413432 0)
(0.106689 -0.00436791 0)
(0.107449 -0.00459745 0)
(0.108231 -0.00482321 0)
(0.109034 -0.00504539 0)
(0.109856 -0.00526415 0)
(0.110696 -0.00547959 0)
(0.111552 -0.00569179 0)
(0.112422 -0.00590075 0)
(0.113305 -0.00610648 0)
(0.1142 -0.00630893 0)
(0.115104 -0.00650803 0)
(0.116017 -0.00670369 0)
(0.116937 -0.00689579 0)
(0.117864 -0.00708418 0)
(0.118796 -0.00726869 0)
(0.119731 -0.00744913 0)
(0.120669 -0.00762528 0)
(0.121609 -0.00779692 0)
(0.122549 -0.00796379 0)
(0.123489 -0.0081256 0)
(0.124428 -0.00828205 0)
(0.125364 -0.00843281 0)
(0.126297 -0.00857753 0)
(0.127225 -0.00871584 0)
(0.128149 -0.00884732 0)
(0.129067 -0.00897154 0)
(0.129978 -0.00908804 0)
(0.130882 -0.0091963 0)
(0.131777 -0.0092958 0)
(0.132664 -0.00938597 0)
(0.133542 -0.00946619 0)
(0.134409 -0.0095358 0)
(0.135266 -0.00959411 0)
(0.136112 -0.00964038 0)
(0.136947 -0.00967381 0)
(0.13777 -0.00969356 0)
(0.138581 -0.00969873 0)
(0.13938 -0.00968839 0)
(0.140167 -0.00966154 0)
(0.140942 -0.00961715 0)
(0.141704 -0.00955413 0)
(0.142456 -0.00947136 0)
(0.143196 -0.00936771 0)
(0.143926 -0.00924203 0)
(0.144647 -0.00909316 0)
(0.145359 -0.00891999 0)
(0.146065 -0.00872147 0)
(0.146765 -0.00849663 0)
(0.147462 -0.00824466 0)
(0.148158 -0.00796492 0)
(0.148855 -0.00765703 0)
(0.149556 -0.00732092 0)
(0.150264 -0.00695693 0)
(0.150983 -0.00656581 0)
(0.151714 -0.0061489 0)
(0.152463 -0.00570808 0)
(0.153231 -0.00524591 0)
(0.154022 -0.00476561 0)
(0.154839 -0.00427107 0)
(0.155684 -0.00376683 0)
(0.156559 -0.00325798 0)
(0.157464 -0.0027501 0)
(0.158399 -0.00224896 0)
(0.159364 -0.0017602 0)
(0.160357 -0.00128902 0)
(0.161375 -0.000839246 0)
(0.162414 -0.000414474 0)
(0.0999904 -0.000403158 0)
(0.100117 -0.000825282 0)
(0.100308 -0.00121524 0)
(0.100561 -0.00158211 0)
(0.100875 -0.00193056 0)
(0.101246 -0.00226322 0)
(0.101669 -0.00258234 0)
(0.10214 -0.00288991 0)
(0.102654 -0.00318754 0)
(0.103209 -0.00347654 0)
(0.103801 -0.00375795 0)
(0.104428 -0.00403264 0)
(0.105085 -0.00430133 0)
(0.105772 -0.0045646 0)
(0.106485 -0.00482292 0)
(0.107223 -0.00507666 0)
(0.107983 -0.00532612 0)
(0.108764 -0.00557153 0)
(0.109563 -0.00581306 0)
(0.11038 -0.00605083 0)
(0.111212 -0.00628491 0)
(0.112057 -0.00651532 0)
(0.112915 -0.00674205 0)
(0.113784 -0.00696506 0)
(0.114662 -0.00718427 0)
(0.115549 -0.00739958 0)
(0.116443 -0.00761086 0)
(0.117343 -0.00781794 0)
(0.118247 -0.00802065 0)
(0.119155 -0.00821878 0)
(0.120065 -0.0084121 0)
(0.120976 -0.00860036 0)
(0.121888 -0.00878329 0)
(0.1228 -0.00896058 0)