/*--------------------------------*- C++ -*----------------------------------*\
| =========                 |                                                 |
| \\      /  F ield         | OpenFOAM: The Open Source CFD Toolbox           |
|  \\    /   O peration     | Version:  2112                                  |
|   \\  /    A nd           | Website:  www.openfoam.com                      |
|    \\/     M anipulation  |                                                 |
\*---------------------------------------------------------------------------*/
FoamFile
{
    version     2.0;
    format      ascii;
    arch        "LSB;label=32;scalar=64";
    class       surfaceScalarField;
    location    "7";
    object      phi;
}
// * * * * * * * * * * * * * * * * * * * * * * * * * * * * * * * * * * * * * //

dimensions      [1 0 -1 0 0 0 0];

oriented        oriented;

internalField   nonuniform List<scalar> 
23692
(
2.32951e-06
-2.52464e-09
2.33408e-06
-4.56991e-09
2.34047e-06
-6.39187e-09
2.34847e-06
-7.99646e-09
2.35791e-06
-9.43403e-09
2.36864e-06
-1.07351e-08
2.38056e-06
-1.19198e-08
2.39357e-06
-1.30046e-08
2.40757e-06
-1.40019e-08
2.4225e-06
-1.49218e-08
2.43827e-06
-1.57724e-08
2.45483e-06
-1.65605e-08
2.47213e-06
-1.72916e-08
2.4901e-06
-1.79706e-08
2.50871e-06
-1.86014e-08
2.5279e-06
-1.91874e-08
2.54763e-06
-1.97316e-08
2.56787e-06
-2.02364e-08
2.58858e-06
-2.07041e-08
2.60972e-06
-2.11364e-08
2.63125e-06
-2.15351e-08
2.65316e-06
-2.19015e-08
2.6754e-06
-2.22368e-08
2.69795e-06
-2.25421e-08
2.72077e-06
-2.28183e-08
2.74384e-06
-2.30663e-08
2.76713e-06
-2.32867e-08
2.79061e-06
-2.34801e-08
2.81426e-06
-2.36471e-08
2.83805e-06
-2.37881e-08
2.86196e-06
-2.39034e-08
2.88596e-06
-2.39935e-08
2.91002e-06
-2.40584e-08
2.93412e-06
-2.40983e-08
2.95824e-06
-2.41135e-08
2.98234e-06
-2.41038e-08
3.00641e-06
-2.40694e-08
3.03043e-06
-2.401e-08
3.05436e-06
-2.39255e-08
3.07817e-06
-2.38156e-08
3.10186e-06
-2.368e-08
3.12538e-06
-2.35182e-08
3.14871e-06
-2.33297e-08
3.17183e-06
-2.31138e-08
3.1947e-06
-2.28696e-08
3.2173e-06
-2.2596e-08
3.23959e-06
-2.2292e-08
3.26155e-06
-2.19561e-08
3.28314e-06
-2.15865e-08
3.30432e-06
-2.11814e-08
3.32506e-06
-2.07384e-08
3.34532e-06
-2.02547e-08
3.36505e-06
-1.9727e-08
3.3842e-06
-1.91515e-08
3.40272e-06
-1.85237e-08
3.42056e-06
-1.7838e-08
3.43765e-06
-1.7088e-08
3.45392e-06
-1.62658e-08
3.46928e-06
-1.53618e-08
3.48365e-06
-1.43645e-08
3.49691e-06
-1.32597e-08
3.50894e-06
-1.20298e-08
3.51959e-06
-1.0653e-08
3.52869e-06
-9.10144e-09
3.53603e-06
-7.33997e-09
3.54136e-06
-5.32306e-09
3.54435e-06
-2.99106e-09
3.54462e-06
-2.656e-10
3.54165e-06
2.96289e-09
3.53481e-06
6.84399e-09
3.52322e-06
1.15928e-08
3.5057e-06
1.75211e-08
3.4806e-06
2.50956e-08
3.44556e-06
3.50349e-08
3.39709e-06
4.84782e-08
3.3298e-06
6.72844e-08
3.23524e-06
9.45604e-08
3.09959e-06
1.35647e-07
2.89918e-06
2.00414e-07
2.59001e-06
3.09173e-07
5.20422e-07
2.06958e-06
2.49261e-06
-5.15908e-09
2.49747e-06
-9.43236e-09
2.50429e-06
-1.32094e-08
2.51282e-06
-1.65302e-08
2.5229e-06
-1.95063e-08
2.53436e-06
-2.21994e-08
2.5471e-06
-2.46516e-08
2.56099e-06
-2.68967e-08
2.57595e-06
-2.89605e-08
2.5919e-06
-3.08641e-08
2.60875e-06
-3.26241e-08
2.62645e-06
-3.42546e-08
2.64492e-06
-3.57673e-08
2.66413e-06
-3.71719e-08
2.68401e-06
-3.84767e-08
2.70451e-06
-3.96889e-08
2.7256e-06
-4.08144e-08
2.74722e-06
-4.18584e-08
2.76935e-06
-4.28255e-08
2.79193e-06
-4.37195e-08
2.81495e-06
-4.45436e-08
2.83835e-06
-4.53009e-08
2.86211e-06
-4.59939e-08
2.8862e-06
-4.66248e-08
2.91058e-06
-4.71954e-08
2.93522e-06
-4.77076e-08
2.9601e-06
-4.81627e-08
2.98519e-06
-4.85619e-08
3.01045e-06
-4.89064e-08
3.03586e-06
-4.9197e-08
3.0614e-06
-4.94345e-08
3.08703e-06
-4.96196e-08
3.11272e-06
-4.97528e-08
3.13846e-06
-4.98343e-08
3.16422e-06
-4.98644e-08
3.18996e-06
-4.98432e-08
3.21567e-06
-4.97706e-08
3.24131e-06
-4.96465e-08
3.26685e-06
-4.94703e-08
3.29228e-06
-4.92418e-08
3.31757e-06
-4.896e-08
3.34267e-06
-4.86241e-08
3.36758e-06
-4.82329e-08
3.39225e-06
-4.7785e-08
3.41667e-06
-4.72786e-08
3.44078e-06
-4.67117e-08
3.46458e-06
-4.60819e-08
3.48801e-06
-4.53862e-08
3.51104e-06
-4.46211e-08
3.53365e-06
-4.37827e-08
3.55578e-06
-4.28661e-08
3.57739e-06
-4.18658e-08
3.59844e-06
-4.07751e-08
3.61888e-06
-3.9586e-08
3.63864e-06
-3.82894e-08
3.65768e-06
-3.68742e-08
3.67592e-06
-3.5327e-08
3.69329e-06
-3.3632e-08
3.7097e-06
-3.17699e-08
3.72505e-06
-2.97175e-08
3.73924e-06
-2.74463e-08
3.75213e-06
-2.49209e-08
3.76358e-06
-2.20976e-08
3.7734e-06
-1.89215e-08
3.78138e-06
-1.53228e-08
3.78727e-06
-1.1212e-08
3.79075e-06
-6.47283e-09
3.79144e-06
-9.52366e-10
3.78885e-06
5.55538e-09
3.78236e-06
1.3333e-08
3.77117e-06
2.27759e-08
3.75425e-06
3.44458e-08
3.73019e-06
4.91579e-08
3.6971e-06
6.81203e-08
3.65242e-06
9.31562e-08
3.59266e-06
1.27053e-07
3.51314e-06
1.74073e-07
3.40816e-06
2.40628e-07
3.27238e-06
3.36198e-07
3.10909e-06
4.7246e-07
6.45112e-07
2.9844e-06
2.66711e-06
-7.88745e-09
2.67226e-06
-1.45807e-08
2.67949e-06
-2.04477e-08
2.68857e-06
-2.56088e-08
2.6993e-06
-3.02324e-08
2.71152e-06
-3.44151e-08
2.72509e-06
-3.82231e-08
2.7399e-06
-4.17088e-08
2.75586e-06
-4.49129e-08
2.77286e-06
-4.78676e-08
2.79084e-06
-5.05992e-08
2.80972e-06
-5.31296e-08
2.82943e-06
-5.54768e-08
2.84992e-06
-5.7656e-08
2.87113e-06
-5.96802e-08
2.893e-06
-6.15604e-08
2.9155e-06
-6.33059e-08
2.93857e-06
-6.49248e-08
2.96217e-06
-6.6424e-08
2.98626e-06
-6.78096e-08
3.01081e-06
-6.90868e-08
3.03577e-06
-7.02602e-08
3.06111e-06
-7.13335e-08
3.0868e-06
-7.23103e-08
3.11281e-06
-7.31936e-08
3.13909e-06
-7.39859e-08
3.16562e-06
-7.46895e-08
3.19237e-06
-7.53064e-08
3.2193e-06
-7.58382e-08
3.2464e-06
-7.62863e-08
3.27362e-06
-7.6652e-08
3.30094e-06
-7.69362e-08
3.32833e-06
-7.71397e-08
3.35576e-06
-7.7263e-08
3.38321e-06
-7.73064e-08
3.41064e-06
-7.72702e-08
3.43802e-06
-7.71542e-08
3.46534e-06
-7.69582e-08
3.49255e-06
-7.66816e-08
3.51964e-06
-7.63235e-08
3.54657e-06
-7.58829e-08
3.5733e-06
-7.53584e-08
3.59982e-06
-7.47481e-08
3.62609e-06
-7.405e-08
3.65207e-06
-7.32613e-08
3.67774e-06
-7.2379e-08
3.70306e-06
-7.13993e-08
3.728e-06
-7.03177e-08
3.75251e-06
-6.91291e-08
3.77655e-06
-6.78272e-08
3.80009e-06
-6.64048e-08
3.82308e-06
-6.48534e-08
3.84547e-06
-6.31629e-08
3.86721e-06
-6.13214e-08
3.88824e-06
-5.93149e-08
3.90849e-06
-5.71267e-08
3.9279e-06
-5.47369e-08
3.94639e-06
-5.21216e-08
3.96388e-06
-4.92522e-08
3.98026e-06
-4.60939e-08
3.99541e-06
-4.26046e-08
4.00923e-06
-3.87322e-08
4.02154e-06
-3.44128e-08
4.03219e-06
-2.95663e-08
4.04096e-06
-2.40922e-08
4.04761e-06
-1.78624e-08
4.05185e-06
-1.07126e-08
4.05333e-06
-2.42965e-09
4.05162e-06
7.26635e-09
4.0462e-06
1.8751e-08
4.03644e-06
3.25356e-08
4.02156e-06
4.93217e-08
4.00064e-06
7.00835e-08
3.97257e-06
9.61862e-08
3.93618e-06
1.29549e-07
3.89039e-06
1.72847e-07
3.83476e-06
2.29699e-07
3.77075e-06
3.04634e-07
3.70468e-06
4.02274e-07
3.65395e-06
5.2319e-07
6.49205e-07
3.64985e-06
2.85381e-06
-1.07028e-08
2.85923e-06
-2.0002e-08
2.86689e-06
-2.81018e-08
2.87652e-06
-3.52354e-08
2.88791e-06
-4.16232e-08
2.90089e-06
-4.73998e-08
2.91533e-06
-5.26578e-08
2.93109e-06
-5.74697e-08
2.94807e-06
-6.1892e-08
2.96618e-06
-6.59694e-08
2.98532e-06
-6.97384e-08
3.00542e-06
-7.3229e-08
3.02642e-06
-7.64664e-08
3.04823e-06
-7.94717e-08
3.07082e-06
-8.22625e-08
3.09412e-06
-8.48543e-08
3.11807e-06
-8.72599e-08
3.14264e-06
-8.94905e-08
3.16778e-06
-9.15557e-08
3.19344e-06
-9.34639e-08
3.21958e-06
-9.52222e-08
3.24616e-06
-9.68369e-08
3.27314e-06
-9.83135e-08
3.30049e-06
-9.96566e-08
3.32817e-06
-1.0087e-07
3.35615e-06
-1.01959e-07
3.38439e-06
-1.02924e-07
3.41286e-06
-1.0377e-07
3.44152e-06
-1.04498e-07
3.47035e-06
-1.05111e-07
3.49931e-06
-1.05609e-07
3.52837e-06
-1.05995e-07
3.55751e-06
-1.0627e-07
3.58668e-06
-1.06434e-07
3.61587e-06
-1.06487e-07
3.64503e-06
-1.06431e-07
3.67415e-06
-1.06265e-07
3.70318e-06
-1.05988e-07
3.7321e-06
-1.05599e-07
3.76088e-06
-1.05099e-07
3.78949e-06
-1.04485e-07
3.81789e-06
-1.03755e-07
3.84605e-06
-1.02907e-07
3.87394e-06
-1.01939e-07
3.90153e-06
-1.00845e-07
3.92877e-06
-9.96236e-08
3.95565e-06
-9.82679e-08
3.9821e-06
-9.67726e-08
4.00811e-06
-9.51306e-08
4.03362e-06
-9.33336e-08
4.05858e-06
-9.13721e-08
4.08297e-06
-8.92345e-08
4.10671e-06
-8.69075e-08
4.12977e-06
-8.43754e-08
4.15208e-06
-8.16195e-08
4.17357e-06
-7.86177e-08
4.19418e-06
-7.53439e-08
4.21382e-06
-7.17669e-08
4.23242e-06
-6.78494e-08
4.24988e-06
-6.35463e-08
4.26608e-06
-5.88032e-08
4.2809e-06
-5.35538e-08
4.2942e-06
-4.77169e-08
4.30583e-06
-4.11921e-08
4.31559e-06
-3.38545e-08
4.32328e-06
-2.55478e-08
4.32864e-06
-1.60741e-08
4.33139e-06
-5.18203e-09
4.33121e-06
7.44902e-09
4.32773e-06
2.22343e-08
4.32054e-06
3.97194e-08
4.30925e-06
6.062e-08
4.29345e-06
8.58752e-08
4.27293e-06
1.1671e-07
4.24778e-06
1.54701e-07
4.21882e-06
2.01801e-07
4.18827e-06
2.6025e-07
4.16075e-06
3.32152e-07
4.14477e-06
4.18256e-07
4.15312e-06
5.14845e-07
6.07165e-07
4.19516e-06
3.05358e-06
-1.36018e-08
3.05927e-06
-2.56847e-08
3.06733e-06
-3.61656e-08
3.07751e-06
-4.54097e-08
3.08957e-06
-5.36854e-08
3.10334e-06
-6.11668e-08
3.11866e-06
-6.79748e-08
3.13539e-06
-7.42037e-08
3.15343e-06
-7.99268e-08
3.17267e-06
-8.52024e-08
3.19301e-06
-9.00779e-08
3.21437e-06
-9.45924e-08
3.23669e-06
-9.87784e-08
3.25988e-06
-1.02663e-07
3.2839e-06
-1.0627e-07
3.30866e-06
-1.09619e-07
3.33413e-06
-1.12726e-07
3.36025e-06
-1.15606e-07
3.38697e-06
-1.18272e-07
3.41425e-06
-1.20735e-07
3.44203e-06
-1.23002e-07
3.47028e-06
-1.25084e-07
3.49896e-06
-1.26987e-07
3.52803e-06
-1.28717e-07
3.55744e-06
-1.30279e-07
3.58716e-06
-1.31678e-07
3.61716e-06
-1.32918e-07
3.6474e-06
-1.34003e-07
3.67784e-06
-1.34935e-07
3.70845e-06
-1.35718e-07
3.7392e-06
-1.36353e-07
3.77005e-06
-1.36843e-07
3.80097e-06
-1.37188e-07
3.83193e-06
-1.37389e-07
3.8629e-06
-1.37448e-07
3.89384e-06
-1.37365e-07
3.92471e-06
-1.37139e-07
3.9555e-06
-1.3677e-07
3.98616e-06
-1.36257e-07
4.01667e-06
-1.356e-07
4.04698e-06
-1.34795e-07
4.07707e-06
-1.33842e-07
4.1069e-06
-1.32736e-07
4.13644e-06
-1.31474e-07
4.16565e-06
-1.30052e-07
4.1945e-06
-1.28465e-07
4.22294e-06
-1.26706e-07
4.25093e-06
-1.24767e-07
4.27845e-06
-1.22641e-07
4.30543e-06
-1.20317e-07
4.33185e-06
-1.17783e-07
4.35764e-06
-1.15025e-07
4.38276e-06
-1.12026e-07
4.40715e-06
-1.08767e-07
4.43076e-06
-1.05226e-07
4.45352e-06
-1.01375e-07
4.47536e-06
-9.71831e-08
4.49621e-06
-9.26127e-08
4.51598e-06
-8.7619e-08
4.53458e-06
-8.21488e-08
4.55192e-06
-7.6138e-08
4.56787e-06
-6.95095e-08
4.58233e-06
-6.21698e-08
4.59514e-06
-5.40051e-08
4.60616e-06
-4.48761e-08
4.61523e-06
-3.46112e-08
4.62215e-06
-2.29983e-08
4.62675e-06
-9.77502e-09
4.62881e-06
5.38234e-09
4.62817e-06
2.28757e-08
4.62469e-06
4.32039e-08
4.61832e-06
6.69916e-08
4.60919e-06
9.50012e-08
4.59776e-06
1.28143e-07
4.585e-06
1.67462e-07
4.57274e-06
2.14058e-07
4.5641e-06
2.6889e-07
4.56392e-06
3.32332e-07
4.5789e-06
4.03276e-07
4.61621e-06
4.7753e-07
5.45493e-07
4.67788e-06
3.26734e-06
-1.65844e-08
3.27327e-06
-3.16204e-08
3.28174e-06
-4.4633e-08
3.29246e-06
-5.61291e-08
3.3052e-06
-6.64222e-08
3.31976e-06
-7.57249e-08
3.33598e-06
-8.41883e-08
3.3537e-06
-9.19298e-08
3.37282e-06
-9.90409e-08
3.39322e-06
-1.05594e-07
3.41479e-06
-1.11649e-07
3.43745e-06
-1.17254e-07
3.46113e-06
-1.22449e-07
3.48574e-06
-1.2727e-07
3.51122e-06
-1.31744e-07
3.5375e-06
-1.35896e-07
3.56453e-06
-1.39748e-07
3.59224e-06
-1.43317e-07
3.62059e-06
-1.46619e-07
3.64953e-06
-1.49668e-07
3.67901e-06
-1.52474e-07
3.70898e-06
-1.55049e-07
3.73939e-06
-1.574e-07
3.77022e-06
-1.59536e-07
3.80141e-06
-1.61464e-07
3.83292e-06
-1.63188e-07
3.86473e-06
-1.64715e-07
3.89678e-06
-1.66049e-07
3.92904e-06
-1.67193e-07
3.96148e-06
-1.6815e-07
3.99405e-06
-1.68924e-07
4.02673e-06
-1.69516e-07
4.05948e-06
-1.69929e-07
4.09226e-06
-1.70164e-07
4.12503e-06
-1.70222e-07
4.15777e-06
-1.70102e-07
4.19045e-06
-1.69806e-07
4.22301e-06
-1.69332e-07
4.25544e-06
-1.68681e-07
4.28769e-06
-1.67849e-07
4.31974e-06
-1.66835e-07
4.35154e-06
-1.65637e-07
4.38306e-06
-1.64251e-07
4.41426e-06
-1.62672e-07
4.4451e-06
-1.60896e-07
4.47556e-06
-1.58916e-07
4.50558e-06
-1.56725e-07
4.53513e-06
-1.54313e-07
4.56416e-06
-1.51672e-07
4.59264e-06
-1.48789e-07
4.62051e-06
-1.4565e-07
4.64772e-06
-1.42238e-07
4.67424e-06
-1.38535e-07
4.69999e-06
-1.34518e-07
4.72493e-06
-1.30161e-07
4.74899e-06
-1.25434e-07
4.77211e-06
-1.203e-07
4.79421e-06
-1.14718e-07
4.81523e-06
-1.08637e-07
4.83508e-06
-1.01999e-07
4.85368e-06
-9.47328e-08
4.87093e-06
-8.67566e-08
4.88673e-06
-7.79706e-08
4.90098e-06
-6.82562e-08
4.91358e-06
-5.74709e-08
4.92441e-06
-4.54438e-08
4.93338e-06
-3.19692e-08
4.94041e-06
-1.68002e-08
4.94544e-06
3.50869e-10
4.94847e-06
1.98408e-08
4.94963e-06
4.20507e-08
4.94917e-06
6.74547e-08
4.94759e-06
9.65727e-08
4.94578e-06
1.29955e-07
4.94511e-06
1.6813e-07
4.94767e-06
2.11501e-07
4.9564e-06
2.60162e-07
4.97514e-06
3.13592e-07
5.00824e-06
3.70171e-07
5.05924e-06
4.26533e-07
4.77006e-07
5.12773e-06
3.49606e-06
-1.96528e-08
3.50224e-06
-3.78027e-08
3.51111e-06
-5.34982e-08
3.52237e-06
-6.73897e-08
3.53578e-06
-7.98334e-08
3.55114e-06
-9.10788e-08
3.56826e-06
-1.01308e-07
3.587e-06
-1.10662e-07
3.60721e-06
-1.19253e-07
3.62879e-06
-1.27167e-07
3.65162e-06
-1.34477e-07
3.67561e-06
-1.41242e-07
3.70067e-06
-1.47511e-07
3.72673e-06
-1.53325e-07
3.75371e-06
-1.58719e-07
3.78154e-06
-1.63724e-07
3.81016e-06
-1.68364e-07
3.83951e-06
-1.72662e-07
3.86953e-06
-1.76636e-07
3.90017e-06
-1.80303e-07
3.93138e-06
-1.83677e-07
3.96311e-06
-1.8677e-07
3.99531e-06
-1.89593e-07
4.02793e-06
-1.92155e-07
4.06094e-06
-1.94465e-07
4.09428e-06
-1.96528e-07
4.12792e-06
-1.98353e-07
4.16182e-06
-1.99943e-07
4.19594e-06
-2.01304e-07
4.23023e-06
-2.02439e-07
4.26467e-06
-2.03352e-07
4.2992e-06
-2.04046e-07
4.3338e-06
-2.04523e-07
4.36843e-06
-2.04785e-07
4.40304e-06
-2.04832e-07
4.43761e-06
-2.04666e-07
4.47209e-06
-2.04287e-07
4.50646e-06
-2.03693e-07
4.54067e-06
-2.02885e-07
4.57469e-06
-2.01861e-07
4.60847e-06
-2.00618e-07
4.64199e-06
-1.99153e-07
4.67521e-06
-1.97463e-07
4.70808e-06
-1.95541e-07
4.74057e-06
-1.93384e-07
4.77264e-06
-1.90983e-07
4.80425e-06
-1.88331e-07
4.83536e-06
-1.85418e-07
4.86592e-06
-1.82231e-07
4.8959e-06
-1.78759e-07
4.92523e-06
-1.74985e-07
4.95389e-06
-1.70891e-07
4.98181e-06
-1.66456e-07
5.00895e-06
-1.61656e-07
5.03525e-06
-1.56462e-07
5.06066e-06
-1.50841e-07
5.08512e-06
-1.44754e-07
5.10856e-06
-1.38158e-07
5.13092e-06
-1.30999e-07
5.15214e-06
-1.23216e-07
5.17215e-06
-1.14738e-07
5.19087e-06
-1.05482e-07
5.20825e-06
-9.53498e-08
5.22423e-06
-8.42271e-08
5.23874e-06
-7.19805e-08
5.25175e-06
-5.84544e-08
5.26325e-06
-4.34686e-08
5.27326e-06
-2.68156e-08
5.28188e-06
-8.26043e-09
5.28926e-06
1.24597e-08
5.2957e-06
3.561e-08
5.30167e-06
6.14778e-08
5.3079e-06
9.03447e-08
5.31541e-06
1.22448e-07
5.32562e-06
1.57923e-07
5.3404e-06
1.9672e-07
5.36208e-06
2.38485e-07
5.39328e-06
2.82392e-07
5.4365e-06
3.26946e-07
5.49323e-06
3.69807e-07
4.07789e-07
5.56244e-06
3.7408e-06
-2.28108e-08
3.74722e-06
-4.42272e-08
3.75648e-06
-6.27567e-08
3.76828e-06
-7.91868e-08
3.78237e-06
-9.3917e-08
3.79852e-06
-1.0723e-07
3.81655e-06
-1.19339e-07
3.8363e-06
-1.3041e-07
3.85763e-06
-1.40575e-07
3.8804e-06
-1.49936e-07
3.90451e-06
-1.58581e-07
3.92985e-06
-1.66578e-07
3.95633e-06
-1.73985e-07
3.98386e-06
-1.80853e-07
4.01237e-06
-1.87223e-07
4.04178e-06
-1.93129e-07
4.07202e-06
-1.98603e-07
4.10303e-06
-2.03671e-07
4.13476e-06
-2.08354e-07
4.16713e-06
-2.12672e-07
4.2001e-06
-2.16643e-07
4.23362e-06
-2.2028e-07
4.26763e-06
-2.23596e-07
4.30208e-06
-2.26603e-07
4.33693e-06
-2.2931e-07
4.37213e-06
-2.31725e-07
4.40764e-06
-2.33857e-07
4.44342e-06
-2.35711e-07
4.47941e-06
-2.37293e-07
4.51559e-06
-2.38608e-07
4.5519e-06
-2.3966e-07
4.58831e-06
-2.40452e-07
4.62478e-06
-2.40987e-07
4.66127e-06
-2.41267e-07
4.69773e-06
-2.41294e-07
4.73414e-06
-2.41069e-07
4.77045e-06
-2.40591e-07
4.80662e-06
-2.39862e-07
4.84262e-06
-2.38879e-07
4.87841e-06
-2.37642e-07
4.91394e-06
-2.36147e-07
4.94918e-06
-2.34392e-07
4.9841e-06
-2.32372e-07
5.01864e-06
-2.30083e-07
5.05278e-06
-2.27517e-07
5.08647e-06
-2.24668e-07
5.11967e-06
-2.21526e-07
5.15233e-06
-2.18082e-07
5.18443e-06
-2.14322e-07
5.21591e-06
-2.10233e-07
5.24672e-06
-2.05798e-07
5.27683e-06
-2.00998e-07
5.30619e-06
-1.95811e-07
5.33475e-06
-1.90211e-07
5.36246e-06
-1.84168e-07
5.38927e-06
-1.7765e-07
5.41513e-06
-1.70616e-07
5.44e-06
-1.63022e-07
5.46382e-06
-1.54817e-07
5.48654e-06
-1.45941e-07
5.50813e-06
-1.36325e-07
5.52855e-06
-1.25893e-07
5.54775e-06
-1.14556e-07
5.56574e-06
-1.02211e-07
5.5825e-06
-8.87458e-08
5.59808e-06
-7.4032e-08
5.61254e-06
-5.79282e-08
5.62601e-06
-4.02808e-08
5.63867e-06
-2.09255e-08
5.65083e-06
3.01369e-10
5.66288e-06
2.35673e-08
5.67538e-06
4.89693e-08
5.68913e-06
7.66018e-08
5.7051e-06
1.06475e-07
5.72454e-06
1.38481e-07
5.74892e-06
1.7234e-07
5.77987e-06
2.07541e-07
5.81899e-06
2.43272e-07
5.86756e-06
2.78372e-07
5.92604e-06
3.11327e-07
3.40392e-07
5.99344e-06
4.00267e-06
-2.60629e-08
4.00934e-06
-5.08912e-08
4.01899e-06
-7.24048e-08
4.03132e-06
-9.1516e-08
4.04607e-06
-1.08669e-07
4.06302e-06
-1.24176e-07
4.08196e-06
-1.38281e-07
4.10273e-06
-1.51177e-07
4.12518e-06
-1.63013e-07
4.14915e-06
-1.73912e-07
4.17455e-06
-1.83972e-07
4.20125e-06
-1.93276e-07
4.22916e-06
-2.0189e-07
4.25819e-06
-2.09874e-07
4.28824e-06
-2.17274e-07
4.31925e-06
-2.24134e-07
4.35114e-06
-2.30487e-07
4.38384e-06
-2.36365e-07
4.41729e-06
-2.41794e-07
4.45142e-06
-2.46797e-07
4.48617e-06
-2.51392e-07
4.5215e-06
-2.55598e-07
4.55733e-06
-2.5943e-07
4.59364e-06
-2.62899e-07
4.63035e-06
-2.66019e-07
4.66743e-06
-2.68798e-07
4.70482e-06
-2.71245e-07
4.74249e-06
-2.73369e-07
4.78037e-06
-2.75175e-07
4.81844e-06
-2.76669e-07
4.85664e-06
-2.77857e-07
4.89494e-06
-2.78741e-07
4.93329e-06
-2.79327e-07
4.97164e-06
-2.79616e-07
5.00996e-06
-2.7961e-07
5.04821e-06
-2.79311e-07
5.08634e-06
-2.7872e-07
5.12432e-06
-2.77836e-07
5.16211e-06
-2.76658e-07
5.19966e-06
-2.75186e-07
5.23693e-06
-2.73417e-07
5.27389e-06
-2.71347e-07
5.31049e-06
-2.68973e-07
5.3467e-06
-2.66288e-07
5.38248e-06
-2.63288e-07
5.41778e-06
-2.59963e-07
5.45256e-06
-2.56306e-07
5.48679e-06
-2.52304e-07
5.52042e-06
-2.47947e-07
5.5534e-06
-2.43218e-07
5.58571e-06
-2.38102e-07
5.61729e-06
-2.32579e-07
5.64811e-06
-2.26627e-07
5.67813e-06
-2.2022e-07
5.70729e-06
-2.13331e-07
5.73557e-06
-2.05926e-07
5.76292e-06
-1.97968e-07
5.78932e-06
-1.89414e-07
5.81472e-06
-1.80218e-07
5.83911e-06
-1.70326e-07
5.86246e-06
-1.59677e-07
5.88477e-06
-1.48205e-07
5.90605e-06
-1.35836e-07
5.92633e-06
-1.22489e-07
5.94567e-06
-1.08078e-07
5.96414e-06
-9.2509e-08
5.9819e-06
-7.56877e-08
5.99914e-06
-5.75187e-08
6.01613e-06
-3.7912e-08
6.03322e-06
-1.67886e-08
6.05087e-06
5.91527e-09
6.06965e-06
3.01954e-08
6.09026e-06
5.59889e-08
6.11356e-06
8.31726e-08
6.14052e-06
1.1152e-07
6.17218e-06
1.40678e-07
6.20958e-06
1.70142e-07
6.25361e-06
1.99244e-07
6.30482e-06
2.27158e-07
6.3632e-06
2.52946e-07
2.75657e-07
6.42794e-06
4.28288e-06
-2.94138e-08
4.28979e-06
-5.77929e-08
4.29982e-06
-8.2439e-08
4.31268e-06
-1.04372e-07
4.3281e-06
-1.24084e-07
4.34584e-06
-1.41913e-07
4.36569e-06
-1.58133e-07
4.38748e-06
-1.72961e-07
4.41104e-06
-1.86569e-07
4.43622e-06
-1.99096e-07
4.46291e-06
-2.10656e-07
4.49098e-06
-2.21342e-07
4.52033e-06
-2.31233e-07
4.55085e-06
-2.40394e-07
4.58247e-06
-2.48883e-07
4.61509e-06
-2.56747e-07
4.64863e-06
-2.64026e-07
4.68303e-06
-2.70757e-07
4.71821e-06
-2.76968e-07
4.75411e-06
-2.82687e-07
4.79066e-06
-2.87937e-07
4.8278e-06
-2.92736e-07
4.86548e-06
-2.97103e-07
4.90364e-06
-3.01052e-07
4.94222e-06
-3.04598e-07
4.98118e-06
-3.07751e-07
5.02046e-06
-3.10521e-07
5.06002e-06
-3.12918e-07
5.0998e-06
-3.14949e-07
5.13976e-06
-3.16621e-07
5.17985e-06
-3.1794e-07
5.22003e-06
-3.18911e-07
5.26024e-06
-3.19537e-07
5.30046e-06
-3.19823e-07
5.34062e-06
-3.19771e-07
5.3807e-06
-3.19383e-07
5.42065e-06
-3.18659e-07
5.46042e-06
-3.17601e-07
5.49997e-06
-3.16207e-07
5.53927e-06
-3.14478e-07
5.57827e-06
-3.1241e-07
5.61693e-06
-3.10001e-07
5.6552e-06
-3.07247e-07
5.69306e-06
-3.04142e-07
5.73046e-06
-3.00681e-07
5.76736e-06
-2.96856e-07
5.80372e-06
-2.92659e-07
5.83949e-06
-2.88078e-07
5.87465e-06
-2.83102e-07
5.90916e-06
-2.77717e-07
5.94296e-06
-2.71906e-07
5.97604e-06
-2.65652e-07
6.00835e-06
-2.58933e-07
6.03986e-06
-2.51726e-07
6.07053e-06
-2.44006e-07
6.10035e-06
-2.35741e-07
6.12929e-06
-2.26899e-07
6.15732e-06
-2.17444e-07
6.18444e-06
-2.07335e-07
6.21064e-06
-1.96527e-07
6.23594e-06
-1.84973e-07
6.26035e-06
-1.72621e-07
6.28394e-06
-1.59416e-07
6.30675e-06
-1.45304e-07
6.3289e-06
-1.30227e-07
6.35053e-06
-1.1413e-07
6.3718e-06
-9.69649e-08
6.39298e-06
-7.86905e-08
6.41435e-06
-5.92814e-08
6.43629e-06
-3.87321e-08
6.45927e-06
-1.70597e-08
6.48378e-06
5.67951e-09
6.51042e-06
2.93535e-08
6.53984e-06
5.37552e-08
6.57273e-06
7.86277e-08
6.60978e-06
1.03628e-07
6.65159e-06
1.28334e-07
6.69859e-06
1.52245e-07
6.75094e-06
1.74804e-07
6.80844e-06
1.95443e-07
2.1365e-07
6.87045e-06
4.58272e-06
-3.28674e-08
4.58986e-06
-6.49309e-08
4.60027e-06
-9.28554e-08
4.61365e-06
-1.1775e-07
4.62972e-06
-1.40154e-07
4.64825e-06
-1.60432e-07
4.669e-06
-1.78886e-07
4.6918e-06
-1.95756e-07
4.71647e-06
-2.11237e-07
4.74286e-06
-2.25485e-07
4.77084e-06
-2.38628e-07
4.80027e-06
-2.50773e-07
4.83106e-06
-2.6201e-07
4.86308e-06
-2.72414e-07
4.89625e-06
-2.82049e-07
4.93048e-06
-2.90968e-07
4.96568e-06
-2.9922e-07
5.00177e-06
-3.06844e-07
5.03868e-06
-3.13874e-07
5.07635e-06
-3.20342e-07
5.11469e-06
-3.26273e-07
5.15365e-06
-3.31689e-07
5.19316e-06
-3.36611e-07
5.23317e-06
-3.41056e-07
5.27362e-06
-3.4504e-07
5.31445e-06
-3.48575e-07
5.35561e-06
-3.51674e-07
5.39705e-06
-3.54347e-07
5.43871e-06
-3.56603e-07
5.48054e-06
-3.58449e-07
5.5225e-06
-3.59894e-07
5.56454e-06
-3.60941e-07
5.60661e-06
-3.61598e-07
5.64866e-06
-3.61867e-07
5.69065e-06
-3.61753e-07
5.73253e-06
-3.61258e-07
5.77426e-06
-3.60383e-07
5.8158e-06
-3.5913e-07
5.85709e-06
-3.57499e-07
5.89811e-06
-3.55489e-07
5.9388e-06
-3.53099e-07
5.97913e-06
-3.50326e-07
6.01906e-06
-3.47168e-07
6.05854e-06
-3.43619e-07
6.09754e-06
-3.39674e-07
6.13601e-06
-3.35327e-07
6.17393e-06
-3.30569e-07
6.21125e-06
-3.25391e-07
6.24793e-06
-3.19782e-07
6.28395e-06
-3.1373e-07
6.31927e-06
-3.0722e-07
6.35385e-06
-3.00236e-07
6.38768e-06
-2.9276e-07
6.42073e-06
-2.84772e-07
6.45298e-06
-2.7625e-07
6.48441e-06
-2.67169e-07
6.51502e-06
-2.57502e-07
6.54479e-06
-2.4722e-07
6.57376e-06
-2.36294e-07
6.60192e-06
-2.2469e-07
6.62933e-06
-2.12375e-07
6.65602e-06
-1.99317e-07
6.68209e-06
-1.85481e-07
6.70763e-06
-1.70838e-07
6.73276e-06
-1.55362e-07
6.75767e-06
-1.39033e-07
6.78254e-06
-1.21842e-07
6.80765e-06
-1.03794e-07
6.83328e-06
-8.49128e-08
6.85979e-06
-6.5244e-08
6.88759e-06
-4.48605e-08
6.91714e-06
-2.38618e-08
6.94887e-06
-2.37997e-09
6.98324e-06
1.93805e-08
7.02071e-06
4.11659e-08
7.06167e-06
6.26664e-08
7.10644e-06
8.35645e-08
7.15518e-06
1.03505e-07
7.20785e-06
1.22126e-07
7.26421e-06
1.39089e-07
1.54122e-07
7.32374e-06
4.90354e-06
-3.64268e-08
4.91091e-06
-7.23031e-08
4.92171e-06
-1.03648e-07
4.9356e-06
-1.3164e-07
4.95232e-06
-1.56868e-07
4.97161e-06
-1.79722e-07
4.99325e-06
-2.00526e-07
5.01705e-06
-2.19548e-07
5.04282e-06
-2.37002e-07
5.0704e-06
-2.53063e-07
5.09965e-06
-2.67875e-07
5.13044e-06
-2.81557e-07
5.16265e-06
-2.94211e-07
5.19616e-06
-3.0592e-07
5.23087e-06
-3.16757e-07
5.26669e-06
-3.26784e-07
5.30353e-06
-3.36054e-07
5.34131e-06
-3.44612e-07
5.37994e-06
-3.52497e-07
5.41935e-06
-3.59744e-07
5.45947e-06
-3.66383e-07
5.50022e-06
-3.72438e-07
5.54155e-06
-3.77934e-07
5.58339e-06
-3.82889e-07
5.62568e-06
-3.87321e-07
5.66836e-06
-3.91246e-07
5.71137e-06
-3.94678e-07
5.75466e-06
-3.97627e-07
5.79817e-06
-4.00105e-07
5.84185e-06
-4.02121e-07
5.88564e-06
-4.03682e-07
5.9295e-06
-4.04797e-07
5.97338e-06
-4.05471e-07
6.01723e-06
-4.05709e-07
6.061e-06
-4.05516e-07
6.10465e-06
-4.04895e-07
6.14812e-06
-4.03849e-07
6.19138e-06
-4.0238e-07
6.23437e-06
-4.00489e-07
6.27707e-06
-3.98176e-07
6.31942e-06
-3.95441e-07
6.36138e-06
-3.92281e-07
6.40291e-06
-3.88696e-07
6.44398e-06
-3.84681e-07
6.48454e-06
-3.80233e-07
6.52457e-06
-3.75345e-07
6.56401e-06
-3.70012e-07
6.60285e-06
-3.64225e-07
6.64105e-06
-3.57976e-07
6.67858e-06
-3.51255e-07
6.71541e-06
-3.4405e-07
6.75153e-06
-3.36349e-07
6.78691e-06
-3.28137e-07
6.82154e-06
-3.19399e-07
6.85541e-06
-3.10118e-07
6.88852e-06
-3.00277e-07
6.92088e-06
-2.89858e-07
6.95251e-06
-2.78841e-07
6.98342e-06
-2.67206e-07
7.01367e-06
-2.54936e-07
7.04331e-06
-2.42013e-07
7.07242e-06
-2.28422e-07
7.10109e-06
-2.14151e-07
7.12945e-06
-1.99195e-07
7.15764e-06
-1.83553e-07
7.18585e-06
-1.67237e-07
7.21427e-06
-1.50268e-07
7.24316e-06
-1.32683e-07
7.27279e-06
-1.14538e-07
7.30346e-06
-9.59087e-08
7.33549e-06
-7.68931e-08
7.36924e-06
-5.76144e-08
7.40508e-06
-3.82184e-08
7.44332e-06
-1.886e-08
7.48422e-06
2.69195e-10
7.52797e-06
1.89131e-08
7.57469e-06
3.68457e-08
7.62439e-06
5.38099e-08
7.67695e-06
6.95678e-08
7.73211e-06
8.39277e-08
9.67486e-08
7.78948e-06
5.24683e-06
-4.00932e-08
5.25443e-06
-7.99063e-08
5.26559e-06
-1.1481e-07
5.27999e-06
-1.46032e-07
5.29733e-06
-1.74213e-07
5.31738e-06
-1.99765e-07
5.33989e-06
-2.23036e-07
5.36467e-06
-2.44316e-07
5.39151e-06
-2.63843e-07
5.42026e-06
-2.81809e-07
5.45076e-06
-2.98373e-07
5.48288e-06
-3.13668e-07
5.51648e-06
-3.27807e-07
5.55145e-06
-3.40885e-07
5.58768e-06
-3.52981e-07
5.62507e-06
-3.64166e-07
5.66352e-06
-3.74499e-07
5.70295e-06
-3.8403e-07
5.74326e-06
-3.92804e-07
5.78439e-06
-4.0086e-07
5.82624e-06
-4.08231e-07
5.86876e-06
-4.14947e-07
5.91187e-06
-4.21032e-07
5.95549e-06
-4.2651e-07
5.99958e-06
-4.314e-07
6.04406e-06
-4.3572e-07
6.08888e-06
-4.39485e-07
6.13397e-06
-4.4271e-07
6.17928e-06
-4.45406e-07
6.22475e-06
-4.47584e-07
6.27033e-06
-4.49253e-07
6.31596e-06
-4.50423e-07
6.3616e-06
-4.511e-07
6.40719e-06
-4.51291e-07
6.45268e-06
-4.51001e-07
6.49803e-06
-4.50236e-07
6.54318e-06
-4.48998e-07
6.5881e-06
-4.47292e-07
6.63274e-06
-4.45119e-07
6.67705e-06
-4.4248e-07
6.72099e-06
-4.39378e-07
6.76453e-06
-4.35811e-07
6.80762e-06
-4.31779e-07
6.85022e-06
-4.2728e-07
6.89231e-06
-4.22311e-07
6.93384e-06
-4.1687e-07
6.97478e-06
-4.10952e-07
7.01512e-06
-4.04552e-07
7.05481e-06
-3.97663e-07
7.09384e-06
-3.9028e-07
7.13219e-06
-3.82394e-07
7.16984e-06
-3.73998e-07
7.20679e-06
-3.65082e-07
7.24303e-06
-3.55637e-07
7.27857e-06
-3.45654e-07
7.31342e-06
-3.35123e-07
7.3476e-06
-3.24034e-07
7.38114e-06
-3.1238e-07
7.41409e-06
-3.00153e-07
7.44651e-06
-2.87349e-07
7.47846e-06
-2.73965e-07
7.51005e-06
-2.60005e-07
7.54137e-06
-2.45475e-07
7.57257e-06
-2.30389e-07
7.60379e-06
-2.14771e-07
7.6352e-06
-1.98651e-07
7.66701e-06
-1.82073e-07
7.69942e-06
-1.65094e-07
7.73267e-06
-1.47785e-07
7.767e-06
-1.30234e-07
7.80265e-06
-1.12545e-07
7.83987e-06
-9.48385e-08
7.8789e-06
-7.72489e-08
7.91997e-06
-5.99229e-08
7.96325e-06
-4.30164e-08
8.00884e-06
-2.66718e-08
8.05674e-06
-1.10529e-08
8.10687e-06
3.6798e-09
8.15906e-06
1.73733e-08
8.21308e-06
2.99094e-08
4.12164e-08
8.26861e-06
5.61414e-06
-4.38664e-08
5.62197e-06
-8.77348e-08
5.63349e-06
-1.26328e-07
5.64837e-06
-1.60911e-07
5.66633e-06
-1.92168e-07
5.6871e-06
-2.20537e-07
5.71046e-06
-2.46387e-07
5.73618e-06
-2.70031e-07
5.76407e-06
-2.91727e-07
5.79395e-06
-3.11687e-07
5.82567e-06
-3.30085e-07
5.85907e-06
-3.47068e-07
5.89403e-06
-3.6276e-07
5.93042e-06
-3.77267e-07
5.96812e-06
-3.90677e-07
6.00703e-06
-4.03068e-07
6.04705e-06
-4.14506e-07
6.08807e-06
-4.25048e-07
6.13002e-06
-4.34744e-07
6.1728e-06
-4.43636e-07
6.21634e-06
-4.51763e-07
6.26056e-06
-4.59156e-07
6.30538e-06
-4.65845e-07
6.35074e-06
-4.71856e-07
6.39656e-06
-4.7721e-07
6.44277e-06
-4.81928e-07
6.48932e-06
-4.86028e-07
6.53615e-06
-4.89524e-07
6.58318e-06
-4.92432e-07
6.63037e-06
-4.94763e-07
6.67766e-06
-4.9653e-07
6.72498e-06
-4.97741e-07
6.7723e-06
-4.98406e-07
6.81955e-06
-4.98532e-07
6.86668e-06
-4.98127e-07
6.91365e-06
-4.97198e-07
6.96041e-06
-4.95748e-07
7.00691e-06
-4.93784e-07
7.0531e-06
-4.91308e-07
7.09896e-06
-4.88324e-07
7.14442e-06
-4.84835e-07
7.18946e-06
-4.80842e-07
7.23403e-06
-4.76347e-07
7.27811e-06
-4.71349e-07
7.32165e-06
-4.6585e-07
7.36464e-06
-4.59848e-07
7.40703e-06
-4.53342e-07
7.44882e-06
-4.4633e-07
7.48997e-06
-4.38811e-07
7.53048e-06
-4.30781e-07
7.57033e-06
-4.22238e-07
7.60951e-06
-4.13179e-07
7.64804e-06
-4.03602e-07
7.68591e-06
-3.93503e-07
7.72314e-06
-3.82881e-07
7.75975e-06
-3.71735e-07
7.79579e-06
-3.60066e-07
7.83129e-06
-3.47876e-07
7.86631e-06
-3.3517e-07
7.90092e-06
-3.21957e-07
7.93521e-06
-3.08248e-07
7.96926e-06
-2.9406e-07
8.00321e-06
-2.79416e-07
8.03717e-06
-2.64345e-07
8.07128e-06
-2.48885e-07
8.10572e-06
-2.33081e-07
8.14063e-06
-2.16989e-07
8.17622e-06
-2.00675e-07
8.21265e-06
-1.84214e-07
8.25011e-06
-1.67693e-07
8.28877e-06
-1.5121e-07
8.3288e-06
-1.3487e-07
8.37034e-06
-1.18787e-07
8.4135e-06
-1.03079e-07
8.45835e-06
-8.78654e-08
8.50494e-06
-7.3261e-08
8.55327e-06
-5.9378e-08
8.60326e-06
-4.63102e-08
8.65476e-06
-3.41281e-08
8.70756e-06
-2.28957e-08
-1.26431e-08
8.76142e-06
6.00717e-06
-4.77435e-08
6.01522e-06
-9.57797e-08
6.02708e-06
-1.38188e-07
6.04242e-06
-1.76252e-07
6.06096e-06
-2.10704e-07
6.08243e-06
-2.42004e-07
6.10659e-06
-2.70541e-07
6.13321e-06
-2.96649e-07
6.1621e-06
-3.20608e-07
6.19306e-06
-3.42648e-07
6.22594e-06
-3.62958e-07
6.26058e-06
-3.81701e-07
6.29684e-06
-3.9901e-07
6.33458e-06
-4.15004e-07
6.37369e-06
-4.2978e-07
6.41405e-06
-4.43423e-07
6.45556e-06
-4.56007e-07
6.49812e-06
-4.67594e-07
6.54162e-06
-4.78241e-07
6.58599e-06
-4.87994e-07
6.63113e-06
-4.96896e-07
6.67697e-06
-5.04983e-07
6.72342e-06
-5.12288e-07
6.77041e-06
-5.1884e-07
6.81787e-06
-5.24662e-07
6.86573e-06
-5.29779e-07
6.91393e-06
-5.3421e-07
6.96238e-06
-5.37973e-07
7.01105e-06
-5.41085e-07
7.05985e-06
-5.43559e-07
7.10874e-06
-5.45409e-07
7.15765e-06
-5.46646e-07
7.20654e-06
-5.47283e-07
7.25534e-06
-5.47327e-07
7.30401e-06
-5.46789e-07
7.3525e-06
-5.45675e-07
7.40075e-06
-5.43994e-07
7.44873e-06
-5.41752e-07
7.49638e-06
-5.38954e-07
7.54367e-06
-5.35607e-07
7.59056e-06
-5.31714e-07
7.63701e-06
-5.2728e-07
7.68298e-06
-5.22309e-07
7.72844e-06
-5.16805e-07