/*--------------------------------*- C++ -*----------------------------------*\
| =========                 |                                                 |
| \\      /  F ield         | OpenFOAM: The Open Source CFD Toolbox           |
|  \\    /   O peration     | Version:  2112                                  |
|   \\  /    A nd           | Website:  www.openfoam.com                      |
|    \\/     M anipulation  |                                                 |
\*---------------------------------------------------------------------------*/
FoamFile
{
    version     2.0;
    format      ascii;
    arch        "LSB;label=32;scalar=64";
    class       volScalarField;
    location    "7";
    object      T;
}
// * * * * * * * * * * * * * * * * * * * * * * * * * * * * * * * * * * * * * //

dimensions      [0 0 0 1 0 0 0];

internalField   nonuniform List<scalar> 
12013
(
300.003
300.01
300.017
300.025
300.033
300.041
300.049
300.058
300.067
300.076
300.086
300.096
300.106
300.117
300.129
300.14
300.152
300.165
300.178
300.191
300.205
300.219
300.234
300.249
300.265
300.281
300.298
300.316
300.333
300.352
300.371
300.39
300.41
300.431
300.452
300.474
300.497
300.52
300.544
300.569
300.594
300.62
300.646
300.674
300.702
300.731
300.761
300.791
300.823
300.855
300.888
300.922
300.957
300.993
301.03
301.068
301.108
301.148
301.189
301.232
301.275
301.321
301.367
301.415
301.464
301.515
301.568
301.622
301.679
301.737
301.798
301.861
301.927
301.996
302.069
302.145
302.227
302.314
302.41
302.516
302.639
300.003
300.01
300.017
300.025
300.033
300.041
300.049
300.058
300.067
300.076
300.086
300.096
300.106
300.117
300.129
300.14
300.152
300.165
300.178
300.191
300.205
300.219
300.234
300.249
300.265
300.281
300.298
300.316
300.333
300.352
300.371
300.39
300.41
300.431
300.452
300.474
300.497
300.52
300.544
300.568
300.594
300.62
300.646
300.674
300.702
300.731
300.761
300.791
300.823
300.855
300.888
300.922
300.957
300.993
301.03
301.068
301.107
301.147
301.189
301.231
301.275
301.32
301.366
301.414
301.464
301.514
301.567
301.621
301.678
301.736
301.796
301.859
301.925
301.994
302.066
302.142
302.222
302.308
302.4
302.5
302.61
300.003
300.01
300.017
300.025
300.033
300.041
300.049
300.058
300.067
300.076
300.086
300.096
300.106
300.117
300.129
300.14
300.152
300.165
300.178
300.191
300.205
300.219
300.234
300.249
300.265
300.281
300.298
300.315
300.333
300.352
300.371
300.39
300.41
300.431
300.452
300.474
300.497
300.52
300.544
300.568
300.594
300.62
300.646
300.674
300.702
300.731
300.761
300.791
300.822
300.855
300.888
300.922
300.957
300.993
301.03
301.068
301.107
301.147
301.188
301.23
301.274
301.319
301.365
301.413
301.462
301.513
301.565
301.619
301.675
301.733
301.793
301.856
301.921
301.988
302.059
302.134
302.212
302.295
302.382
302.474
302.571
300.003
300.01
300.017
300.025
300.033
300.041
300.049
300.058
300.067
300.076
300.086
300.096
300.106
300.117
300.129
300.14
300.152
300.165
300.178
300.191
300.205
300.219
300.234
300.249
300.265
300.281
300.298
300.315
300.333
300.352
300.371
300.39
300.41
300.431
300.452
300.474
300.497
300.52
300.544
300.568
300.593
300.619
300.646
300.673
300.702
300.73
300.76
300.791
300.822
300.854
300.887
300.921
300.956
300.992
301.029
301.067
301.106
301.146
301.187
301.229
301.273
301.317
301.364
301.411
301.46
301.51
301.562
301.616
301.671
301.729
301.788
301.85
301.914
301.98
302.049
302.121
302.197
302.275
302.357
302.442
302.528
300.003
300.01
300.017
300.025
300.033
300.041
300.049
300.058
300.067
300.076
300.086
300.096
300.106
300.117
300.129
300.14
300.152
300.165
300.178
300.191
300.205
300.219
300.234
300.249
300.265
300.281
300.298
300.315
300.333
300.352
300.37
300.39
300.41
300.431
300.452
300.474
300.496
300.52
300.543
300.568
300.593
300.619
300.646
300.673
300.701
300.73
300.76
300.79
300.821
300.854
300.887
300.92
300.955
300.991
301.028
301.066
301.104
301.144
301.185
301.227
301.271
301.315
301.361
301.408
301.456
301.506
301.558
301.611
301.666
301.722
301.781
301.841
301.904
301.968
302.035
302.105
302.177
302.251
302.326
302.404
302.482
300.003
300.01
300.017
300.025
300.032
300.041
300.049
300.058
300.067
300.076
300.086
300.096
300.106
300.117
300.128
300.14
300.152
300.165
300.178
300.191
300.205
300.219
300.234
300.249
300.265
300.281
300.298
300.315
300.333
300.351
300.37
300.39
300.41
300.431
300.452
300.474
300.496
300.519
300.543
300.568
300.593
300.619
300.645
300.672
300.701
300.729
300.759
300.789
300.821
300.853
300.886
300.919
300.954
300.99
301.026
301.064
301.102
301.142
301.183
301.225
301.268
301.312
301.357
301.404
301.452
301.501
301.552
301.604
301.658
301.714
301.771
301.83
301.891
301.953
302.018
302.084
302.152
302.221
302.292
302.363
302.433
300.003
300.01
300.017
300.025
300.032
300.041
300.049
300.058
300.067
300.076
300.086
300.096
300.106
300.117
300.128
300.14
300.152
300.165
300.178
300.191
300.205
300.219
300.234
300.249
300.265
300.281
300.298
300.315
300.333
300.351
300.37
300.39
300.41
300.43
300.451
300.473
300.496
300.519
300.543
300.567
300.592
300.618
300.645
300.672
300.7
300.728
300.758
300.788
300.819
300.851
300.884
300.918
300.952
300.988
301.024
301.062
301.1
301.139
301.18
301.221
301.264
301.308
301.352
301.399
301.446
301.495
301.545
301.596
301.649
301.703
301.759
301.816
301.875
301.935
301.996
302.059
302.123
302.188
302.253
302.319
302.384
300.003
300.01
300.017
300.025
300.032
300.041
300.049
300.058
300.067
300.076
300.086
300.096
300.106
300.117
300.128
300.14
300.152
300.165
300.178
300.191
300.205
300.219
300.234
300.249
300.265
300.281
300.298
300.315
300.333
300.351
300.37
300.389
300.409
300.43
300.451
300.473
300.495
300.518
300.542
300.567
300.592
300.617
300.644
300.671
300.699
300.727
300.757
300.787
300.818
300.85
300.882
300.916
300.95
300.985
301.022
301.059
301.097
301.136
301.176
301.217
301.259
301.302
301.346
301.392
301.438
301.486
301.535
301.585
301.637
301.69
301.744
301.799
301.855
301.913
301.971
302.031
302.091
302.151
302.212
302.272
302.332
300.003
300.01
300.017
300.025
300.032
300.041
300.049
300.058
300.067
300.076
300.086
300.096
300.106
300.117
300.128
300.14
300.152
300.165
300.177
300.191
300.205
300.219
300.234
300.249
300.265
300.281
300.297
300.315
300.332
300.351
300.37
300.389
300.409
300.43
300.451
300.472
300.495
300.518
300.541
300.566
300.591
300.616
300.643
300.67
300.698
300.726
300.755
300.785
300.816
300.848
300.88
300.913
300.947
300.982
301.018
301.055
301.093
301.131
301.171
301.211
301.253
301.295
301.339
301.384
301.429
301.476
301.524
301.573
301.623
301.674
301.726
301.779
301.833
301.887
301.943
301.999
302.055
302.112
302.168
302.224
302.28
300.003
300.01
300.017
300.025
300.032
300.04
300.049
300.058
300.067
300.076
300.086
300.096
300.106
300.117
300.128
300.14
300.152
300.164
300.177
300.191
300.204
300.219
300.233
300.249
300.264
300.281
300.297
300.314
300.332
300.35
300.369
300.389
300.408
300.429
300.45
300.472
300.494
300.517
300.541
300.565
300.59
300.615
300.641
300.668
300.696
300.724
300.753
300.783
300.814
300.845
300.877
300.91
300.944
300.979
301.014
301.051
301.088
301.126
301.165
301.205
301.246
301.287
301.33
301.374
301.418
301.464
301.51
301.558
301.606
301.655
301.705
301.756
301.807
301.859
301.912
301.964
302.017
302.07
302.122
302.174
302.226
300.003
300.01
300.017
300.025
300.032
300.04
300.049
300.057
300.066
300.076
300.086
300.096
300.106
300.117
300.128
300.14
300.152
300.164
300.177
300.191
300.204
300.219
300.233
300.248
300.264
300.28
300.297
300.314
300.332
300.35
300.369
300.388
300.408
300.428
300.449
300.471
300.493
300.516
300.539
300.564
300.588
300.614
300.64
300.667
300.694
300.722
300.751
300.781
300.811
300.842
300.874
300.907
300.94
300.974
301.009
301.045
301.082
301.119
301.158
301.197
301.237
301.278
301.319
301.362
301.405
301.45
301.495
301.54
301.587
301.634
301.682
301.73
301.779
301.828
301.877
301.927
301.976
302.026
302.075
302.123
302.171
300.003
300.01
300.017
300.025
300.032
300.04
300.049
300.057
300.066
300.076
300.086
300.096
300.106
300.117
300.128
300.14
300.152
300.164
300.177
300.19
300.204
300.218
300.233
300.248
300.264
300.28
300.296
300.314
300.331
300.349
300.368
300.387
300.407
300.428
300.448
300.47
300.492
300.515
300.538
300.562
300.587
300.612
300.638
300.664
300.692
300.72
300.748
300.778
300.808
300.838
300.87
300.902
300.935
300.969
301.003
301.039
301.075
301.111
301.149
301.187
301.226
301.266
301.307
301.348
301.39
301.433
301.476
301.52
301.565
301.61
301.656
301.702
301.748
301.794
301.841
301.887
301.934
301.98
302.025
302.07
302.115
300.003
300.01
300.017
300.025
300.032
300.04
300.049
300.057
300.066
300.076
300.085
300.095
300.106
300.117
300.128
300.14
300.152
300.164
300.177
300.19
300.204
300.218
300.233
300.248
300.263
300.279
300.296
300.313
300.331
300.349
300.367
300.387
300.406
300.427
300.447
300.469
300.491
300.513
300.537
300.56
300.585
300.61
300.636
300.662
300.689
300.717
300.745
300.774
300.804
300.834
300.865
300.897
300.929
300.963
300.996
301.031
301.066
301.102
301.139
301.176
301.215
301.253
301.293
301.333
301.373
301.414
301.456
301.498
301.541
301.584
301.627
301.671
301.714
301.758
301.802
301.845
301.889
301.932
301.974
302.016
302.058
300.003
300.01
300.017
300.025
300.032
300.04
300.049
300.057
300.066
300.076
300.085
300.095
300.106
300.117
300.128
300.139
300.151
300.164
300.177
300.19
300.204
300.218
300.232
300.247
300.263
300.279
300.295
300.312
300.33
300.348
300.366
300.386
300.405
300.425
300.446
300.467
300.489
300.512
300.535
300.558
300.583
300.607
300.633
300.659
300.686
300.713
300.741
300.77
300.799
300.829
300.859
300.891
300.923
300.955
300.988
301.022
301.057
301.092
301.128
301.164
301.201
301.238
301.276
301.315
301.354
301.394
301.434
301.474
301.514
301.555
301.596
301.637
301.679
301.72
301.761
301.802
301.842
301.882
301.922
301.961
302
300.003
300.01
300.017
300.025
300.032
300.04
300.049
300.057
300.066
300.076
300.085
300.095
300.106
300.116
300.128
300.139
300.151
300.163
300.176
300.189
300.203
300.217
300.232
300.247
300.262
300.278
300.295
300.312
300.329
300.347
300.365
300.384
300.404
300.424
300.445
300.466
300.487
300.51
300.533
300.556
300.58
300.605
300.63
300.655
300.682
300.709
300.736
300.765
300.793
300.823
300.853
300.884
300.915
300.947
300.979
301.012
301.046
301.08
301.115
301.15
301.185
301.222
301.258
301.295
301.333
301.371
301.409
301.447
301.486
301.524
301.563
301.602
301.641
301.679
301.718
301.756
301.794
301.831
301.869
301.905
301.941
300.003
300.01
300.017
300.025
300.032
300.04
300.049
300.057
300.066
300.075
300.085
300.095
300.105
300.116
300.127
300.139
300.151
300.163
300.176
300.189
300.203
300.217
300.231
300.246
300.262
300.278
300.294
300.311
300.328
300.346
300.364
300.383
300.402
300.422
300.443
300.464
300.485
300.507
300.53
300.553
300.577
300.601
300.626
300.651
300.677
300.704
300.731
300.759
300.787
300.816
300.845
300.875
300.906
300.937
300.968
301.001
301.033
301.066
301.1
301.134
301.168
301.203
301.238
301.274
301.31
301.346
301.382
301.418
301.455
301.491
301.528
301.565
301.601
301.637
301.673
301.709
301.745
301.78
301.814
301.848
301.882
300.003
300.01
300.017
300.025
300.032
300.04
300.048
300.057
300.066
300.075
300.085
300.095
300.105
300.116
300.127
300.139
300.15
300.163
300.175
300.189
300.202
300.216
300.231
300.245
300.261
300.277
300.293
300.31
300.327
300.345
300.363
300.382
300.401
300.42
300.441
300.461
300.483
300.505
300.527
300.55
300.573
300.597
300.622
300.647
300.672
300.698
300.725
300.752
300.78
300.808
300.837
300.866
300.896
300.926
300.957
300.988
301.019
301.051
301.084
301.116
301.149
301.183
301.216
301.25
301.284
301.319
301.353
301.388
301.422
301.457
301.491
301.525
301.56
301.594
301.627
301.661
301.694
301.727
301.759
301.791
301.822
300.003
300.01
300.017
300.024
300.032
300.04
300.048
300.057
300.066
300.075
300.085
300.095
300.105
300.116
300.127
300.138
300.15
300.162
300.175
300.188
300.202
300.215
300.23
300.245
300.26
300.276
300.292
300.308
300.325
300.343
300.361
300.38
300.399
300.418
300.438
300.459
300.48
300.501
300.523
300.546
300.569
300.593
300.617
300.641
300.666
300.692
300.718
300.744
300.772
300.799
300.827
300.855
300.884
300.914
300.943
300.973
301.004
301.035
301.066
301.097
301.129
301.161
301.193
301.225
301.257
301.29
301.322
301.355
301.388
301.42
301.453
301.485
301.517
301.549
301.58
301.612
301.643
301.673
301.703
301.733
301.762
300.003
300.01
300.017
300.024
300.032
300.04
300.048
300.057
300.066
300.075
300.084
300.094
300.105
300.115
300.126
300.138
300.15
300.162
300.174
300.187
300.201
300.215
300.229
300.244
300.259
300.274
300.29
300.307
300.324
300.341
300.359
300.378
300.396
300.416
300.435
300.456
300.476
300.498
300.519
300.542
300.564
300.587
300.611
300.635
300.66
300.685
300.71
300.736
300.762
300.789
300.816
300.844
300.872
300.9
300.929
300.957
300.987
301.016
301.046
301.076
301.106
301.137
301.167
301.198
301.229
301.259
301.29
301.321
301.352
301.382
301.413
301.443
301.473
301.503
301.532
301.562
301.59
301.619
301.647
301.675
301.702
300.003
300.01
300.017
300.024
300.032
300.04
300.048
300.057
300.065
300.075
300.084
300.094
300.104
300.115
300.126
300.137
300.149
300.161
300.174
300.187
300.2
300.214
300.228
300.243
300.258
300.273
300.289
300.305
300.322
300.339
300.357
300.375
300.394
300.413
300.432
300.452
300.473
300.493
300.515
300.537
300.559
300.581
300.605
300.628
300.652
300.676
300.701
300.726
300.752
300.778
300.804
300.831
300.858
300.885
300.912
300.94
300.968
300.997
301.025
301.054
301.082
301.111
301.14
301.169
301.198
301.227
301.256
301.285
301.314
301.343
301.371
301.4
301.428
301.456
301.483
301.511
301.538
301.564
301.591
301.617
301.642
300.003
300.01
300.017
300.024
300.032
300.04
300.048
300.056
300.065
300.074
300.084
300.094
300.104
300.115
300.125
300.137
300.148
300.16
300.173
300.186
300.199
300.213
300.227
300.241
300.256
300.271
300.287
300.303
300.32
300.337
300.354
300.372
300.391
300.409
300.429
300.448
300.468
300.489
300.51
300.531
300.553
300.575
300.597
300.62
300.644
300.667
300.691
300.716
300.74
300.765
300.791
300.817
300.842
300.869
300.895
300.922
300.948
300.975
301.003
301.03
301.057
301.084
301.112
301.139
301.167
301.194
301.221
301.249
301.276
301.303
301.329
301.356
301.382
301.408
301.434
301.46
301.485
301.51
301.534
301.559
301.583
300.003
300.01
300.017
300.024
300.032
300.04
300.048
300.056
300.065
300.074
300.084
300.093
300.103
300.114
300.125
300.136
300.148
300.16
300.172
300.185
300.198
300.211
300.225
300.24
300.254
300.27
300.285
300.301
300.317
300.334
300.351
300.369
300.387
300.406
300.424
300.444
300.463
300.483
300.504
300.525
300.546
300.567
300.589
300.612
300.634
300.657
300.681
300.704
300.728
300.752
300.777
300.801
300.826
300.851
300.876
300.902
300.927
300.953
300.979
301.005
301.03
301.056
301.082
301.108
301.134
301.16
301.185
301.211
301.236
301.262
301.287
301.311
301.336
301.36
301.385
301.408
301.432
301.455
301.478
301.501
301.523
300.003
300.01
300.017
300.024
300.032
300.039
300.048
300.056
300.065
300.074
300.083
300.093
300.103
300.113
300.124
300.135
300.147
300.159
300.171
300.184
300.197
300.21
300.224
300.238
300.253
300.268
300.283
300.299
300.315
300.331
300.348
300.366
300.383
300.401
300.42
300.439
300.458
300.477
300.497
300.518
300.538
300.559
300.581
300.602
300.624
300.646
300.669
300.691
300.714
300.738
300.761
300.785
300.808
300.832
300.857
300.881
300.905
300.929
300.954
300.978
301.003
301.027
301.052
301.076
301.1
301.125
301.149
301.173
301.196
301.22
301.243
301.267
301.29
301.312
301.335
301.357
301.379
301.401
301.422
301.443
301.464
300.003
300.01
300.017
300.024
300.031
300.039
300.047
300.056
300.064
300.073
300.083
300.092
300.102
300.113
300.123
300.134
300.146
300.158
300.17
300.182
300.195
300.208
300.222
300.236
300.25
300.265
300.28
300.296
300.312
300.328
300.345
300.362
300.379
300.397
300.415
300.433
300.452
300.471
300.49
300.51
300.53
300.55
300.571
300.592
300.613
300.634
300.656
300.678
300.7
300.722
300.745
300.767
300.79
300.813
300.836
300.859
300.882
300.905
300.928
300.951
300.974
300.997
301.02
301.043
301.066
301.089
301.111
301.134
301.156
301.178
301.2
301.222
301.243
301.264
301.285
301.306
301.327
301.347
301.367
301.387
301.406
300.003
300.01
300.017
300.024
300.031
300.039
300.047
300.055
300.064
300.073
300.082
300.092
300.102
300.112
300.123
300.133
300.145
300.156
300.168
300.181
300.194
300.207
300.22
300.234
300.248
300.263
300.277
300.293
300.308
300.324
300.34
300.357
300.374
300.391
300.409
300.427
300.445
300.464
300.483
300.502
300.521
300.541
300.561
300.581
300.601
300.622
300.643
300.664
300.685
300.706
300.727
300.749
300.77
300.792
300.814
300.836
300.858
300.879
300.901
300.923
300.945
300.967
300.988
301.01
301.031
301.052
301.074
301.095
301.115
301.136
301.157
301.177
301.197
301.217
301.236
301.256
301.275
301.294
301.313
301.331
301.349
300.003
300.01
300.017
300.024
300.031
300.039
300.047
300.055
300.063
300.072
300.082
300.091
300.101
300.111
300.122
300.132
300.144
300.155
300.167
300.179
300.192
300.205
300.218
300.231
300.245
300.26
300.274
300.289
300.304
300.32
300.336
300.352
300.369
300.386
300.403
300.42
300.438
300.456
300.474
300.493
300.512
300.53
300.55
300.569
300.589
300.608
300.628
300.648
300.669
300.689
300.709
300.73
300.75
300.771
300.792
300.812
300.833
300.853
300.874
300.895
300.915
300.935
300.956
300.976
300.996
301.016
301.036
301.056
301.075
301.094
301.114
301.133
301.151
301.17
301.188
301.206
301.224
301.242
301.259
301.276
301.293
300.003
300.01
300.016
300.023
300.031
300.038
300.046
300.054
300.063
300.072
300.081
300.09
300.1
300.11
300.12
300.131
300.142
300.154
300.165
300.177
300.19
300.202
300.215
300.229
300.242
300.256
300.271
300.285
300.3
300.316
300.331
300.347
300.363
300.38
300.396
300.413
300.43
300.448
300.465
300.483
300.501
300.52
300.538
300.557
300.575
300.594
300.613
300.633
300.652
300.671
300.691
300.71
300.73
300.749
300.769
300.788
300.808
300.827
300.847
300.866
300.885
300.904
300.923
300.942
300.961
300.98
300.999
301.017
301.035
301.053
301.071
301.089
301.106
301.124
301.141
301.158
301.175
301.191
301.207
301.223
301.239
300.003
300.01
300.016
300.023
300.031
300.038
300.046
300.054
300.062
300.071
300.08
300.089
300.099
300.109
300.119
300.13
300.141
300.152
300.164
300.175
300.188
300.2
300.213
300.226
300.239
300.253
300.267
300.281
300.296
300.311
300.326
300.341
300.357
300.373
300.389
300.406
300.422
300.439
300.456
300.473
300.491
300.508
300.526
300.544
300.562
300.58
300.598
300.616
300.635
300.653
300.671
300.69
300.708
300.727
300.745
300.764
300.782
300.801
300.819
300.837
300.855
300.873
300.891
300.909
300.927
300.944
300.962
300.979
300.996
301.013
301.03
301.046
301.063
301.079
301.095
301.111
301.126
301.142
301.157
301.172
301.187
300.003
300.01
300.016
300.023
300.03
300.038
300.045
300.053
300.062
300.07
300.079
300.089
300.098
300.108
300.118
300.128
300.139
300.15
300.162
300.173
300.185
300.197
300.21
300.223
300.236
300.249
300.263
300.277
300.291
300.306
300.32
300.335
300.351
300.366
300.382
300.398
300.414
300.43
300.446
300.463
300.48
300.496
300.513
300.531
300.548
300.565
300.582
300.6
300.617
300.635
300.652
300.67
300.687
300.705
300.722
300.74
300.757
300.774
300.792
300.809
300.826
300.843
300.86
300.876
300.893
300.909
300.926
300.942
300.958
300.974
300.99
301.005
301.02
301.036
301.051
301.065
301.08
301.094
301.109
301.123
301.136
300.003
300.009
300.016
300.023
300.03
300.037
300.045
300.053
300.061
300.07
300.078
300.088
300.097
300.107
300.117
300.127
300.137
300.148
300.159
300.171
300.183
300.195
300.207
300.219
300.232
300.245
300.259
300.272
300.286
300.3
300.315
300.329
300.344
300.359
300.374
300.389
300.405
300.42
300.436
300.452
300.468
300.484
300.501
300.517
300.533
300.55
300.566
300.583
300.6
300.616
300.633
300.65
300.666
300.683
300.699
300.716
300.732
300.748
300.765
300.781
300.797
300.813
300.829
300.845
300.86
300.876
300.891
300.906
300.921
300.936
300.951
300.965
300.98
300.994
301.008
301.022
301.035
301.049
301.062
301.075
301.088
300.003
300.009
300.016
300.023
300.03
300.037
300.044
300.052
300.06
300.069
300.078
300.086
300.096
300.105
300.115
300.125
300.136
300.146
300.157
300.168
300.18
300.192
300.204
300.216
300.229
300.241
300.254
300.268
300.281
300.295
300.309
300.323
300.337
300.351
300.366
300.381
300.396
300.411
300.426
300.441
300.457
300.472
300.488
300.503
300.519
300.535
300.551
300.567
300.582
300.598
300.614
300.63
300.645
300.661
300.677
300.692
300.708
300.723
300.739
300.754
300.769
300.784
300.799
300.814
300.829
300.843
300.858
300.872
300.886
300.9
300.914
300.927
300.941
300.954
300.968
300.981
300.993
301.006
301.019
301.031
301.043
300.003
300.009
300.016
300.022
300.029
300.036
300.044
300.052
300.06
300.068
300.077
300.085
300.094
300.104
300.114
300.123
300.134
300.144
300.155
300.166
300.177
300.189
300.2
300.212
300.225
300.237
300.25
300.263
300.276
300.289
300.303
300.316
300.33
300.344
300.358
300.372
300.387
300.401
300.416
300.431
300.445
300.46
300.475
300.49
300.505
300.52
300.535
300.55
300.565
300.58
300.595
300.61
300.625
300.64
300.655
300.67
300.685
300.699
300.714
300.728
300.743
300.757
300.771
300.785
300.799
300.812
300.826
300.839
300.853
300.866
300.879
300.892
300.905
300.917
300.93
300.942
300.954
300.966
300.978
300.989
301.001
300.003
300.009
300.015
300.022
300.029
300.036
300.043
300.051
300.059
300.067
300.075
300.084
300.093
300.102
300.112
300.122
300.132
300.142
300.152
300.163
300.174
300.186
300.197
300.209
300.221
300.233
300.245
300.258
300.27
300.283
300.296
300.31
300.323
300.337
300.35
300.364
300.378
300.392
300.406
300.42
300.434
300.449
300.463
300.477
300.492
300.506
300.52
300.535
300.549
300.563
300.578
300.592
300.606
300.62
300.635
300.649
300.663
300.676
300.69
300.704
300.717
300.731
300.744
300.757
300.771
300.784
300.796
300.809
300.822
300.834
300.847
300.859
300.871
300.883
300.894
300.906
300.917
300.929
300.94
300.951
300.961
300.003
300.009
300.015
300.022
300.028
300.035
300.043
300.05
300.058
300.066
300.074
300.083
300.092
300.101
300.11
300.12
300.13
300.14
300.15
300.161
300.171
300.182
300.194
300.205
300.217
300.229
300.241
300.253
300.265
300.278
300.29
300.303
300.316
300.329
300.343
300.356
300.369
300.383
300.396
300.41
300.424
300.437
300.451
300.465
300.479
300.492
300.506
300.52
300.534
300.547
300.561
300.575
300.588
300.602
300.615
300.629
300.642
300.655
300.668
300.681
300.694
300.707
300.72
300.732
300.745
300.757
300.769
300.781
300.793
300.805
300.817
300.828
300.84
300.851
300.862
300.873
300.884
300.895
300.905
300.916
300.926
300.003
300.009
300.015
300.021
300.028
300.035
300.042
300.05
300.057
300.065
300.073
300.082
300.09
300.099
300.109
300.118
300.128
300.138
300.148
300.158
300.169
300.179
300.19
300.202
300.213
300.224
300.236
300.248
300.26
300.272
300.285
300.297
300.31
300.322
300.335
300.348
300.361
300.374
300.387
300.4
300.414
300.427
300.44
300.453
300.467
300.48
300.493
300.506
300.52
300.533
300.546
300.559
300.572
300.585
300.598
300.61
300.623
300.636
300.648
300.661
300.673
300.685
300.697
300.709
300.721
300.733
300.745
300.756
300.768
300.779
300.79
300.801
300.812
300.823
300.833
300.844
300.854
300.864
300.874
300.884
300.894
300.003
300.009
300.015
300.021
300.028
300.035
300.042
300.049
300.056
300.064
300.072
300.081
300.089
300.098
300.107
300.116
300.126
300.135
300.145
300.156
300.166
300.177
300.187
300.198
300.209
300.221
300.232
300.244
300.255
300.267
300.279
300.292
300.304
300.316
300.329
300.341
300.354
300.366
300.379
300.392
300.404
300.417
300.43
300.443
300.456
300.469
300.481
300.494
300.507
300.519
300.532
300.545
300.557
300.57
300.582
300.594
300.607
300.619
300.631
300.643
300.654
300.666
300.678
300.689
300.701
300.712
300.723
300.734
300.745
300.756
300.767
300.777
300.787
300.798
300.808
300.818
300.828
300.838
300.847
300.857
300.866
300.003
300.009
300.015
300.021
300.027
300.034
300.041
300.048
300.056
300.063
300.071
300.08
300.088
300.097
300.106
300.115
300.124
300.134
300.143
300.153
300.164
300.174
300.184
300.195
300.206
300.217
300.228
300.24
300.251
300.263
300.275
300.286
300.298
300.31
300.323
300.335
300.347
300.359
300.372
300.384
300.397
300.409
300.421
300.434
300.446
300.459
300.471
300.483
300.496
300.508
300.52
300.532
300.545
300.557
300.569
300.58
300.592
300.604
300.616
300.627
300.638
300.65
300.661
300.672
300.683
300.694
300.705
300.715
300.726
300.736
300.747
300.757
300.767
300.777
300.786
300.796
300.806
300.815
300.824
300.833
300.842
300.003
300.009
300.014
300.021
300.027
300.034
300.041
300.048
300.055
300.063
300.071
300.079
300.087
300.096
300.104
300.113
300.122
300.132
300.142
300.151
300.161
300.172
300.182
300.193
300.203
300.214
300.225
300.236
300.248
300.259
300.271
300.282
300.294
300.306
300.318
300.33
300.342
300.354
300.366
300.378
300.39
300.402
300.414
300.426
300.438
300.45
300.463
300.475
300.487
300.499
300.51
300.522
300.534
300.546
300.557
300.569
300.58
300.592
300.603
300.614
300.625
300.636
300.647
300.658
300.669
300.679
300.69
300.7
300.71
300.721
300.73
300.74
300.75
300.76
300.769
300.778
300.788
300.797
300.806
300.815
300.823
300.003
300.008
300.014
300.02
300.027
300.033
300.04
300.047
300.055
300.062
300.07
300.078
300.086
300.095
300.103
300.112
300.121
300.131
300.14
300.15
300.16
300.17
300.18
300.19
300.201
300.212
300.223
300.234
300.245
300.256
300.267
300.279
300.29
300.302
300.314
300.325
300.337
300.349
300.361
300.373
300.385
300.397
300.409
300.42
300.432
300.444
300.456
300.468
300.48
300.491
300.503
300.515
300.526
300.538
300.549
300.56
300.572
300.583
300.594
300.605
300.616
300.626
300.637
300.648
300.658
300.668
300.679
300.689
300.699
300.709
300.718
300.728
300.737
300.747
300.756
300.765
300.774
300.783
300.792
300.801
300.809
300.003
300.008
300.014
300.02
300.027
300.033
300.04
300.047
300.054
300.062
300.069
300.077
300.086
300.094
300.103
300.111
300.12
300.13
300.139
300.149
300.159
300.169
300.179
300.189
300.199
300.21
300.221
300.232
300.243
300.254
300.265
300.277
300.288
300.299
300.311
300.323
300.334
300.346
300.358
300.369
300.381
300.393
300.405
300.416
300.428
300.44
300.452
300.463
300.475
300.487
300.498
300.509
300.521
300.532
300.543
300.555
300.566
300.577
300.588
300.598
300.609
300.62
300.63
300.641
300.651
300.661
300.671
300.681
300.691
300.701
300.71
300.72
300.729
300.738
300.747
300.756
300.765
300.774
300.783
300.791
300.8
300.003
300.008
300.014
300.02
300.027
300.033
300.04
300.047
300.054
300.061
300.069
300.077
300.085
300.094
300.102
300.111
300.12
300.129
300.139
300.148
300.158
300.168
300.178
300.188
300.199
300.209
300.22
300.231
300.242
300.253
300.264
300.275
300.287
300.298
300.31
300.321
300.333
300.344
300.356
300.368
300.379
300.391
300.403
300.415
300.426
300.438
300.449
300.461
300.473
300.484
300.496
300.507
300.518
300.529
300.541
300.552
300.563
300.574
300.584
300.595
300.606
300.616
300.627
300.637
300.647
300.657
300.667
300.677
300.687
300.697
300.706
300.716
300.725
300.734
300.743
300.752
300.761
300.77
300.778
300.787
300.795
302.794
302.915
303.017
303.107
303.186
303.258
303.324
303.385
303.441
303.492
303.54
303.585
303.626
303.665
303.701
303.735
303.767
303.797
303.826
303.854
303.881
303.907
303.934
303.961
303.989
304.018
304.046
304.074
304.102
304.129
304.157
304.184
304.211
304.238
304.264
304.291
304.317
304.343
304.369
304.395
304.42
304.446
304.472
304.497
304.522
304.548
304.573
304.598
304.623
304.648
304.673
304.698
304.723
304.747
304.772
304.797
304.821
304.846
304.87
304.895
304.919
304.944
304.968
304.992
305.017
305.041
305.065
305.09
305.114
305.138
305.162
305.187
305.211
305.235
305.259
305.283
305.307
305.331
305.356
305.38
305.404
305.428
305.452
305.476
305.5
305.524
305.548
305.572
305.596
305.62
305.644
305.668
305.691
305.715
305.739
305.763
305.786
305.81
305.834
305.857
305.881
305.904
305.927
305.951
305.974
305.997
306.02
306.043
306.065
306.088
306.11
306.132
306.154
306.175
306.197
306.218
306.239
306.259
306.279
306.299
306.319
306.338
306.356
306.374
306.392
306.408
306.425
306.44
306.455
306.469
306.482
306.495
306.506
306.516
306.525
306.533
306.54
306.545
306.549
306.551
306.552
306.551
306.547
306.542
306.534
306.523
306.51
306.494
306.475
306.452
306.425
306.394
306.358
306.316
306.269
306.215
306.159
306.093
306.001
305.865
305.659
302.728
302.837
302.934
303.021
303.1
303.173
303.239
303.301
303.358
303.411
303.46
303.506
303.549
303.589
303.627
303.663
303.697
303.729
303.759
303.789
303.817
303.845
303.874
303.902
303.931
303.959
303.988
304.016
304.045
304.073
304.101
304.128
304.156
304.183
304.21
304.237
304.263
304.29
304.316
304.342
304.368
304.394
304.42
304.446
304.471
304.497
304.523
304.548
304.573
304.598
304.624
304.649
304.674
304.699
304.724
304.749
304.774
304.798
304.823
304.848
304.872
304.897
304.922
304.946
304.971
304.995
305.02
305.044
305.069
305.093
305.118
305.142
305.167
305.191
305.215
305.24
305.264
305.288
305.313
305.337
305.361
305.386
305.41
305.434
305.458
305.483
305.507
305.531
305.555
305.579
305.603
305.628
305.652
305.676
305.7
305.724
305.748
305.771
305.795
305.819
305.843
305.866
305.89
305.913
305.937
305.96
305.983
306.006
306.029
306.052
306.074
306.096
306.119
306.14
306.162
306.183
306.205
306.225
306.246
306.266
306.285
306.305
306.323
306.341
306.359
306.376
306.393
306.408
306.423
306.438
306.451
306.464
306.475
306.486
306.495
306.503
306.51
306.515
306.519
306.522
306.522
306.521
306.518
306.512
306.504
306.494
306.481
306.464
306.445
306.422
306.394
306.363
306.326
306.284
306.236
306.181
306.122
306.051
305.954
305.814
305.606
302.67
302.766
302.856
302.939
303.017
303.088
303.154
303.216
303.274
303.327
303.378
303.425
303.469
303.511
303.55
303.588
303.623
303.657
303.689
303.72
303.75
303.78
303.809
303.839
303.868
303.897
303.926
303.955
303.984
304.013
304.041
304.069
304.097
304.125
304.152
304.179
304.206
304.233
304.26
304.286
304.313
304.339
304.365
304.391
304.417
304.443
304.469
304.495