/*--------------------------------*- C++ -*----------------------------------*\
| =========                 |                                                 |
| \\      /  F ield         | OpenFOAM: The Open Source CFD Toolbox           |
|  \\    /   O peration     | Version:  2112                                  |
|   \\  /    A nd           | Website:  www.openfoam.com                      |
|    \\/     M anipulation  |                                                 |
\*---------------------------------------------------------------------------*/
FoamFile
{
    version     2.0;
    format      ascii;
    arch        "LSB;label=32;scalar=64";
    class       volVectorField;
    location    "7";
    object      U;
}
// * * * * * * * * * * * * * * * * * * * * * * * * * * * * * * * * * * * * * //

dimensions      [0 1 -1 0 0 0 0];

internalField   nonuniform List<vector> 
12013
(
(0.100036 -1.01837e-05 0)
(0.100186 -1.8841e-05 0)
(0.100428 -2.68822e-05 0)
(0.100742 -3.43095e-05 0)
(0.10112 -4.12992e-05 0)
(0.101557 -4.79504e-05 0)
(0.102048 -5.43255e-05 0)
(0.102588 -6.04761e-05 0)
(0.103172 -6.64397e-05 0)
(0.103797 -7.22465e-05 0)
(0.104461 -7.79206e-05 0)
(0.10516 -8.34807e-05 0)
(0.105892 -8.89424e-05 0)
(0.106654 -9.43182e-05 0)
(0.107445 -9.96186e-05 0)
(0.108262 -0.000104851 0)
(0.109103 -0.000110023 0)
(0.109968 -0.000115138 0)
(0.110853 -0.000120201 0)
(0.111758 -0.000125213 0)
(0.112681 -0.000130175 0)
(0.113621 -0.00013509 0)
(0.114576 -0.000139955 0)
(0.115545 -0.000144771 0)
(0.116527 -0.000149534 0)
(0.117521 -0.000154242 0)
(0.118525 -0.000158893 0)
(0.119538 -0.000163481 0)
(0.120559 -0.000168004 0)
(0.121587 -0.000172454 0)
(0.122621 -0.000176827 0)
(0.12366 -0.000181116 0)
(0.124703 -0.000185313 0)
(0.125748 -0.00018941 0)
(0.126795 -0.000193398 0)
(0.127842 -0.000197268 0)
(0.128889 -0.000201009 0)
(0.129934 -0.000204607 0)
(0.130977 -0.000208052 0)
(0.132016 -0.000211326 0)
(0.13305 -0.000214416 0)
(0.134078 -0.000217302 0)
(0.135099 -0.000219964 0)
(0.136112 -0.000222381 0)
(0.137115 -0.000224528 0)
(0.138108 -0.000226377 0)
(0.13909 -0.000227896 0)
(0.140057 -0.00022905 0)
(0.141011 -0.000229798 0)
(0.141948 -0.000230095 0)
(0.142868 -0.000229888 0)
(0.143768 -0.000229116 0)
(0.144647 -0.000227708 0)
(0.145503 -0.000225584 0)
(0.146334 -0.000222648 0)
(0.147138 -0.000218786 0)
(0.147911 -0.000213867 0)
(0.148651 -0.000207729 0)
(0.149355 -0.000200182 0)
(0.150019 -0.000190994 0)
(0.150638 -0.000179881 0)
(0.151208 -0.000166491 0)
(0.151723 -0.000150388 0)
(0.152176 -0.00013102 0)
(0.152558 -0.000107682 0)
(0.152861 -7.94613e-05 0)
(0.153071 -4.51598e-05 0)
(0.153174 -3.17542e-06 0)
(0.153151 4.86779e-05 0)
(0.152977 0.000113525 0)
(0.15262 0.000195812 0)
(0.152037 0.000302083 0)
(0.151169 0.000442269 0)
(0.149933 0.000631937 0)
(0.148206 0.000896328 0)
(0.145806 0.00127782 0)
(0.142451 0.00185018 0)
(0.137672 0.00274972 0)
(0.130684 0.00427058 0)
(0.120408 0.00727708 0)
(0.10861 0.0158297 0)
(0.100034 -3.10937e-05 0)
(0.100183 -5.77658e-05 0)
(0.100424 -8.24615e-05 0)
(0.100736 -0.000105257 0)
(0.101114 -0.000126708 0)
(0.10155 -0.000147119 0)
(0.10204 -0.000166681 0)
(0.102578 -0.000185553 0)
(0.103162 -0.000203849 0)
(0.103786 -0.000221664 0)
(0.104449 -0.000239069 0)
(0.105147 -0.000256124 0)
(0.105878 -0.000272877 0)
(0.106639 -0.000289366 0)
(0.107429 -0.000305621 0)
(0.108244 -0.000321669 0)
(0.109085 -0.000337527 0)
(0.109948 -0.000353212 0)
(0.110832 -0.000368734 0)
(0.111735 -0.000384101 0)
(0.112657 -0.000399317 0)
(0.113595 -0.000414382 0)
(0.114549 -0.000429297 0)
(0.115517 -0.000444056 0)
(0.116497 -0.000458655 0)
(0.117489 -0.000473086 0)
(0.118491 -0.000487338 0)
(0.119503 -0.0005014 0)
(0.120522 -0.000515257 0)
(0.121549 -0.000528893 0)
(0.122581 -0.00054229 0)
(0.123618 -0.000555428 0)
(0.124658 -0.000568284 0)
(0.125702 -0.000580833 0)
(0.126746 -0.000593049 0)
(0.127792 -0.0006049 0)
(0.128836 -0.000616353 0)
(0.129879 -0.000627372 0)
(0.13092 -0.000637915 0)
(0.131956 -0.000647939 0)
(0.132988 -0.000657394 0)
(0.134014 -0.000666225 0)
(0.135032 -0.000674372 0)
(0.136043 -0.000681765 0)
(0.137044 -0.00068833 0)
(0.138034 -0.000693981 0)
(0.139013 -0.000698622 0)
(0.139978 -0.000702145 0)
(0.140929 -0.000704426 0)
(0.141864 -0.000705326 0)
(0.142781 -0.000704682 0)
(0.143678 -0.000702311 0)
(0.144555 -0.000697997 0)
(0.145409 -0.000691493 0)
(0.146238 -0.000682506 0)
(0.147039 -0.000670695 0)
(0.14781 -0.000655653 0)
(0.148548 -0.000636896 0)
(0.149251 -0.000613845 0)
(0.149913 -0.000585793 0)
(0.150532 -0.000551883 0)
(0.151103 -0.000511054 0)
(0.151619 -0.000461986 0)
(0.152074 -0.000403018 0)
(0.152461 -0.000332034 0)
(0.152769 -0.000246304 0)
(0.152989 -0.000142254 0)
(0.153105 -1.51343e-05 0)
(0.153101 0.000141487 0)
(0.152954 0.000336626 0)
(0.152637 0.000583039 0)
(0.152114 0.000899232 0)
(0.151335 0.00131276 0)
(0.150236 0.00186574 0)
(0.14873 0.00262433 0)
(0.146697 0.00369475 0)
(0.143977 0.00525037 0)
(0.140348 0.00757637 0)
(0.135541 0.0111453 0)
(0.129571 0.0166515 0)
(0.124701 0.0244555 0)
(0.100031 -5.28491e-05 0)
(0.100178 -9.90829e-05 0)
(0.100417 -0.000141617 0)
(0.100727 -0.000180865 0)
(0.101103 -0.000217793 0)
(0.101537 -0.00025292 0)
(0.102025 -0.000286584 0)
(0.102562 -0.000319054 0)
(0.103143 -0.000350534 0)
(0.103766 -0.000381181 0)
(0.104426 -0.000411122 0)
(0.105122 -0.000440458 0)
(0.105851 -0.000469272 0)
(0.106609 -0.00049763 0)
(0.107397 -0.000525585 0)
(0.10821 -0.00055318 0)
(0.109048 -0.000580449 0)
(0.109908 -0.000607417 0)
(0.110789 -0.000634103 0)
(0.11169 -0.00066052 0)
(0.112609 -0.000686675 0)
(0.113545 -0.00071257 0)
(0.114495 -0.000738203 0)
(0.11546 -0.000763569 0)
(0.116437 -0.000788656 0)
(0.117426 -0.000813451 0)
(0.118424 -0.000837937 0)
(0.119432 -0.000862093 0)
(0.120448 -0.000885895 0)
(0.121471 -0.000909315 0)
(0.122499 -0.000932321 0)
(0.123533 -0.000954879 0)
(0.124569 -0.000976951 0)
(0.125608 -0.000998493 0)
(0.126649 -0.00101946 0)
(0.12769 -0.00103979 0)
(0.12873 -0.00105944 0)
(0.129769 -0.00107834 0)
(0.130804 -0.00109642 0)
(0.131836 -0.00111361 0)
(0.132863 -0.00112981 0)
(0.133884 -0.00114494 0)
(0.134898 -0.00115889 0)
(0.135903 -0.00117155 0)
(0.136899 -0.00118278 0)
(0.137885 -0.00119244 0)
(0.138858 -0.00120036 0)
(0.139818 -0.00120636 0)
(0.140763 -0.00121024 0)
(0.141693 -0.00121174 0)
(0.142604 -0.0012106 0)
(0.143497 -0.0012065 0)
(0.144369 -0.00119908 0)
(0.145217 -0.00118791 0)
(0.146041 -0.0011725 0)
(0.146838 -0.00115228 0)
(0.147604 -0.00112656 0)
(0.148339 -0.00109451 0)
(0.149038 -0.00105518 0)
(0.149698 -0.00100737 0)
(0.150316 -0.000949663 0)
(0.150886 -0.000880285 0)
(0.151403 -0.000797056 0)
(0.151862 -0.000697242 0)
(0.152255 -0.000577381 0)
(0.152574 -0.00043304 0)
(0.152809 -0.000258469 0)
(0.152949 -4.6112e-05 0)
(0.152977 0.000214112 0)
(0.152878 0.000535995 0)
(0.152629 0.000938674 0)
(0.152204 0.00144913 0)
(0.151571 0.00210608 0)
(0.150691 0.00296601 0)
(0.149523 0.00411245 0)
(0.14802 0.00566955 0)
(0.14615 0.00782 0)
(0.143919 0.010823 0)
(0.141436 0.0150164 0)
(0.139126 0.0206887 0)
(0.138237 0.02731 0)
(0.100028 -7.5261e-05 0)
(0.100173 -0.000142677 0)
(0.100408 -0.00020428 0)
(0.100716 -0.000261156 0)
(0.101088 -0.000314645 0)
(0.10152 -0.00036551 0)
(0.102004 -0.000414248 0)
(0.102538 -0.000461248 0)
(0.103116 -0.000506809 0)
(0.103735 -0.000551158 0)
(0.104393 -0.00059448 0)
(0.105085 -0.000636923 0)
(0.10581 -0.000678605 0)
(0.106565 -0.000719623 0)
(0.107349 -0.000760055 0)
(0.108158 -0.000799961 0)
(0.108992 -0.000839392 0)
(0.109849 -0.000878383 0)
(0.110726 -0.000916963 0)
(0.111622 -0.000955149 0)
(0.112537 -0.000992952 0)
(0.113468 -0.00103038 0)
(0.114414 -0.00106742 0)
(0.115374 -0.00110406 0)
(0.116346 -0.0011403 0)
(0.117329 -0.00117612 0)
(0.118323 -0.00121148 0)
(0.119326 -0.00124636 0)
(0.120336 -0.00128072 0)
(0.121353 -0.00131453 0)
(0.122376 -0.00134773 0)
(0.123403 -0.00138028 0)
(0.124433 -0.00141212 0)
(0.125466 -0.00144319 0)
(0.1265 -0.00147342 0)
(0.127535 -0.00150273 0)
(0.128568 -0.00153104 0)
(0.1296 -0.00155827 0)
(0.130629 -0.00158431 0)
(0.131654 -0.00160904 0)
(0.132674 -0.00163236 0)
(0.133687 -0.00165411 0)
(0.134693 -0.00167416 0)
(0.135691 -0.00169233 0)
(0.136679 -0.00170845 0)
(0.137657 -0.00172229 0)
(0.138622 -0.00173362 0)
(0.139575 -0.00174219 0)
(0.140512 -0.00174768 0)
(0.141434 -0.00174976 0)
(0.142338 -0.00174803 0)
(0.143222 -0.00174206 0)
(0.144086 -0.00173132 0)
(0.144928 -0.00171521 0)
(0.145744 -0.00169304 0)
(0.146534 -0.00166399 0)
(0.147295 -0.0016271 0)
(0.148024 -0.00158124 0)
(0.148719 -0.00152503 0)
(0.149375 -0.00145684 0)
(0.149991 -0.00137469 0)
(0.150561 -0.00127617 0)
(0.151081 -0.00115829 0)
(0.151546 -0.00101736 0)
(0.151949 -0.000848739 0)
(0.152284 -0.000646546 0)
(0.152543 -0.000403261 0)
(0.152716 -0.00010916 0)
(0.152793 0.000248418 0)
(0.152762 0.000686317 0)
(0.152608 0.00122721 0)
(0.152317 0.00190184 0)
(0.151876 0.00275222 0)
(0.151271 0.00383595 0)
(0.150499 0.00523183 0)
(0.149573 0.00704582 0)
(0.148541 0.00941412 0)
(0.147514 0.0124939 0)
(0.146711 0.0164184 0)
(0.146512 0.0211449 0)
(0.147464 0.0260218 0)
(0.100025 -9.83356e-05 0)
(0.100167 -0.000188463 0)
(0.100398 -0.000270408 0)
(0.100701 -0.000346147 0)
(0.10107 -0.000417351 0)
(0.101497 -0.000485036 0)
(0.101978 -0.000549874 0)
(0.102507 -0.000612387 0)
(0.103081 -0.000672973 0)
(0.103696 -0.000731939 0)
(0.104348 -0.000789529 0)
(0.105036 -0.000845942 0)
(0.105756 -0.000901335 0)
(0.106507 -0.000955838 0)
(0.107285 -0.00100955 0)
(0.10809 -0.00106256 0)
(0.108918 -0.00111493 0)
(0.109769 -0.00116671 0)
(0.11064 -0.00121794 0)
(0.111531 -0.00126863 0)
(0.11244 -0.00131881 0)
(0.113364 -0.00136847 0)
(0.114304 -0.00141762 0)
(0.115257 -0.00146624 0)
(0.116223 -0.00151431 0)
(0.117199 -0.00156181 0)
(0.118186 -0.00160869 0)
(0.119181 -0.00165493 0)
(0.120184 -0.00170047 0)
(0.121194 -0.00174526 0)
(0.122208 -0.00178924 0)
(0.123227 -0.00183234 0)
(0.12425 -0.0018745 0)
(0.125274 -0.00191561 0)
(0.1263 -0.00195561 0)
(0.127325 -0.00199437 0)
(0.12835 -0.0020318 0)
(0.129373 -0.00206778 0)
(0.130392 -0.00210217 0)
(0.131407 -0.00213482 0)
(0.132418 -0.00216558 0)
(0.133421 -0.00219426 0)
(0.134418 -0.00222067 0)
(0.135405 -0.00224459 0)
(0.136384 -0.00226576 0)
(0.137351 -0.00228393 0)
(0.138306 -0.00229878 0)
(0.139248 -0.00230995 0)
(0.140175 -0.00231707 0)
(0.141086 -0.00231968 0)
(0.14198 -0.00231728 0)
(0.142855 -0.00230929 0)
(0.143709 -0.00229504 0)
(0.144541 -0.00227375 0)
(0.145348 -0.00224454 0)
(0.14613 -0.00220635 0)
(0.146883 -0.00215797 0)
(0.147605 -0.00209794 0)
(0.148295 -0.00202455 0)
(0.148948 -0.00193575 0)
(0.149562 -0.00182908 0)
(0.150133 -0.00170153 0)
(0.150658 -0.00154949 0)
(0.151132 -0.00136846 0)
(0.15155 -0.00115292 0)
(0.151908 -0.000895954 0)
(0.152199 -0.000588869 0)
(0.152418 -0.00022068 0)
(0.152557 0.000222518 0)
(0.152611 0.000758528 0)
(0.152574 0.0014104 0)
(0.152443 0.00220794 0)
(0.152218 0.00318951 0)
(0.151909 0.00440397 0)
(0.151535 0.00591216 0)
(0.151142 0.00778643 0)
(0.150807 0.0101048 0)
(0.150657 0.0129322 0)
(0.150884 0.016275 0)
(0.151733 0.0199841 0)
(0.153422 0.0235869 0)
(0.100022 -0.000122081 0)
(0.100161 -0.000236364 0)
(0.100387 -0.000339952 0)
(0.100685 -0.000435828 0)
(0.101049 -0.000525953 0)
(0.101471 -0.000611596 0)
(0.101946 -0.000693616 0)
(0.10247 -0.000772676 0)
(0.103038 -0.000849279 0)
(0.103647 -0.000923819 0)
(0.104294 -0.000996605 0)
(0.104976 -0.00106789 0)
(0.10569 -0.00113787 0)
(0.106434 -0.00120671 0)
(0.107206 -0.00127455 0)
(0.108004 -0.00134148 0)
(0.108825 -0.0014076 0)
(0.109669 -0.00147295 0)
(0.110533 -0.00153759 0)
(0.111416 -0.00160155 0)
(0.112317 -0.00166485 0)
(0.113234 -0.00172748 0)
(0.114165 -0.00178945 0)
(0.11511 -0.00185074 0)
(0.116067 -0.00191132 0)
(0.117035 -0.00197117 0)
(0.118013 -0.00203023 0)
(0.118999 -0.00208845 0)
(0.119992 -0.00214579 0)
(0.120992 -0.00220216 0)
(0.121997 -0.00225749 0)
(0.123006 -0.00231171 0)
(0.124018 -0.0023647 0)
(0.125032 -0.00241638 0)
(0.126046 -0.00246662 0)
(0.127061 -0.0025153 0)
(0.128074 -0.00256228 0)
(0.129085 -0.0026074 0)
(0.130093 -0.00265052 0)
(0.131097 -0.00269143 0)
(0.132095 -0.00272993 0)
(0.133086 -0.00276581 0)
(0.13407 -0.00279882 0)
(0.135045 -0.00282868 0)
(0.136011 -0.00285508 0)
(0.136966 -0.00287769 0)
(0.137908 -0.00289612 0)
(0.138837 -0.00290995 0)
(0.139752 -0.00291869 0)
(0.14065 -0.00292179 0)
(0.141532 -0.00291864 0)
(0.142394 -0.00290852 0)
(0.143237 -0.00289061 0)
(0.144058 -0.002864 0)
(0.144855 -0.00282758 0)
(0.145627 -0.00278012 0)
(0.146371 -0.00272015 0)
(0.147086 -0.00264594 0)
(0.14777 -0.00255549 0)
(0.14842 -0.00244639 0)
(0.149034 -0.0023158 0)
(0.149608 -0.00216029 0)
(0.15014 -0.00197576 0)
(0.150626 -0.00175721 0)
(0.151065 -0.00149859 0)
(0.151451 -0.00119247 0)
(0.151783 -0.000829746 0)
(0.152056 -0.000399176 0)
(0.15227 0.000113051 0)
(0.152422 0.000723522 0)
(0.152515 0.00145304 0)
(0.152554 0.00232691 0)
(0.152549 0.00337547 0)
(0.152522 0.00463405 0)
(0.152506 0.00614183 0)
(0.152552 0.00793827 0)
(0.152736 0.0100551 0)
(0.153165 0.0125003 0)
(0.153967 0.0152292 0)
(0.155277 0.018099 0)
(0.157169 0.0208179 0)
(0.100019 -0.00014651 0)
(0.100155 -0.000286315 0)
(0.100376 -0.000412859 0)
(0.100668 -0.000530167 0)
(0.101025 -0.000640464 0)
(0.101441 -0.00074525 0)
(0.10191 -0.000845581 0)
(0.102427 -0.000942267 0)
(0.102988 -0.00103593 0)
(0.10359 -0.00112704 0)
(0.10423 -0.00121599 0)
(0.104904 -0.00130308 0)
(0.105611 -0.00138856 0)
(0.106347 -0.00147263 0)
(0.107111 -0.00155545 0)
(0.107901 -0.00163716 0)
(0.108714 -0.00171784 0)
(0.109549 -0.00179757 0)
(0.110404 -0.00187642 0)
(0.111278 -0.00195442 0)
(0.11217 -0.00203159 0)
(0.113077 -0.00210793 0)
(0.113998 -0.00218345 0)
(0.114933 -0.00225811 0)
(0.115879 -0.00233189 0)
(0.116837 -0.00240475 0)
(0.117803 -0.00247664 0)
(0.118778 -0.00254748 0)
(0.11976 -0.00261722 0)
(0.120748 -0.00268576 0)
(0.121741 -0.00275301 0)
(0.122737 -0.00281888 0)
(0.123737 -0.00288324 0)
(0.124738 -0.00294596 0)
(0.125739 -0.00300691 0)
(0.126741 -0.00306594 0)
(0.127741 -0.00312288 0)
(0.128738 -0.00317754 0)
(0.129732 -0.00322972 0)
(0.130721 -0.0032792 0)
(0.131705 -0.00332573 0)
(0.132682 -0.00336905 0)
(0.133651 -0.00340886 0)
(0.134611 -0.00344484 0)
(0.135562 -0.0034766 0)
(0.136502 -0.00350376 0)
(0.137429 -0.00352585 0)
(0.138344 -0.00354236 0)
(0.139244 -0.00355273 0)
(0.140128 -0.00355631 0)
(0.140995 -0.00355237 0)
(0.141844 -0.00354007 0)
(0.142673 -0.00351848 0)
(0.143481 -0.00348652 0)
(0.144266 -0.00344293 0)
(0.145028 -0.0033863 0)
(0.145763 -0.00331495 0)
(0.146471 -0.00322696 0)
(0.147149 -0.00312008 0)
(0.147797 -0.00299167 0)
(0.148411 -0.00283862 0)
(0.14899 -0.00265726 0)
(0.149532 -0.00244324 0)
(0.150035 -0.00219139 0)
(0.150498 -0.00189555 0)
(0.150918 -0.00154835 0)
(0.151296 -0.00114101 0)
(0.151632 -0.000663063 0)
(0.151926 -0.000102091 0)
(0.152182 0.000556176 0)
(0.152407 0.00132819 0)
(0.152612 0.00223289 0)
(0.152812 0.00329105 0)
(0.153033 0.00452421 0)
(0.153309 0.00595249 0)
(0.153687 0.00759071 0)
(0.154227 0.00944181 0)
(0.155003 0.0114869 0)
(0.156091 0.0136709 0)
(0.157557 0.0158865 0)
(0.159415 0.0179643 0)
(0.100016 -0.000171644 0)
(0.100149 -0.000338274 0)
(0.100364 -0.000489089 0)
(0.10065 -0.000629127 0)
(0.101 -0.000760869 0)
(0.101408 -0.000886022 0)
(0.101869 -0.00100584 0)
(0.102379 -0.00112127 0)
(0.102932 -0.00123306 0)
(0.103526 -0.00134178 0)
(0.104157 -0.00144789 0)
(0.104823 -0.00155176 0)
(0.10552 -0.00165369 0)
(0.106247 -0.0017539 0)
(0.107002 -0.0018526 0)
(0.107781 -0.00194994 0)
(0.108584 -0.00204603 0)
(0.109409 -0.00214098 0)
(0.110254 -0.00223484 0)
(0.111117 -0.00232766 0)
(0.111997 -0.00241947 0)
(0.112893 -0.00251027 0)
(0.113803 -0.00260005 0)
(0.114725 -0.0026888 0)
(0.115659 -0.00277647 0)
(0.116604 -0.00286301 0)
(0.117557 -0.00294836 0)
(0.118519 -0.00303245 0)
(0.119487 -0.00311518 0)
(0.120461 -0.00319647 0)
(0.12144 -0.00327619 0)
(0.122422 -0.00335423 0)
(0.123407 -0.00343045 0)
(0.124393 -0.0035047 0)
(0.125379 -0.00357681 0)
(0.126365 -0.0036466 0)
(0.127349 -0.00371387 0)
(0.128331 -0.00377841 0)
(0.129308 -0.00383998 0)
(0.130281 -0.00389831 0)
(0.131248 -0.00395313 0)
(0.132208 -0.00400411 0)
(0.133161 -0.00405091 0)
(0.134104 -0.00409316 0)
(0.135038 -0.00413041 0)
(0.135961 -0.00416221 0)
(0.136871 -0.00418803 0)
(0.137769 -0.00420728 0)
(0.138652 -0.00421932 0)
(0.13952 -0.00422341 0)
(0.140371 -0.00421871 0)
(0.141205 -0.00420431 0)
(0.142019 -0.00417913 0)
(0.142813 -0.00414199 0)
(0.143586 -0.0040915 0)
(0.144336 -0.0040261 0)
(0.145062 -0.00394399 0)
(0.145763 -0.0038431 0)
(0.146436 -0.00372104 0)
(0.147082 -0.00357505 0)
(0.147698 -0.00340193 0)
(0.148284 -0.00319795 0)
(0.148839 -0.00295879 0)
(0.149361 -0.00267942 0)
(0.149851 -0.00235401 0)
(0.15031 -0.00197578 0)
(0.150738 -0.00153694 0)
(0.151138 -0.00102855 0)
(0.151514 -0.000440471 0)
(0.151873 0.000238658 0)
(0.152223 0.00102001 0)
(0.152577 0.00191591 0)
(0.152954 0.00293829 0)
(0.153376 0.00409733 0)
(0.153874 0.00539939 0)
(0.154484 0.00684407 0)
(0.155248 0.00842012 0)
(0.156212 0.0101004 0)
(0.157416 0.0118367 0)
(0.158887 0.0135556 0)
(0.16062 0.0151614 0)
(0.100013 -0.000197518 0)
(0.100143 -0.000392212 0)
(0.100352 -0.000568605 0)
(0.100631 -0.000732668 0)
(0.100973 -0.000887142 0)
(0.101373 -0.00103391 0)
(0.101826 -0.0011744 0)
(0.102326 -0.00130974 0)
(0.10287 -0.00144077 0)
(0.103455 -0.00156817 0)
(0.104076 -0.00169248 0)
(0.104731 -0.00181412 0)
(0.105419 -0.00193345 0)
(0.106135 -0.00205075 0)
(0.106878 -0.00216624 0)
(0.107646 -0.0022801 0)
(0.108438 -0.00239247 0)
(0.10925 -0.00250346 0)
(0.110083 -0.00261315 0)
(0.110933 -0.00272159 0)
(0.1118 -0.00282881 0)
(0.112683 -0.00293481 0)
(0.113579 -0.00303959 0)
(0.114488 -0.00314312 0)
(0.115407 -0.00324536 0)
(0.116337 -0.00334624 0)
(0.117276 -0.00344569 0)
(0.118222 -0.00354363 0)
(0.119175 -0.00363995 0)
(0.120133 -0.00373454 0)
(0.121096 -0.00382727 0)
(0.122061 -0.00391799 0)
(0.123029 -0.00400654 0)
(0.123998 -0.00409275 0)
(0.124967 -0.00417643 0)
(0.125935 -0.00425737 0)
(0.126901 -0.00433533 0)
(0.127864 -0.00441008 0)
(0.128823 -0.00448132 0)
(0.129778 -0.00454877 0)
(0.130726 -0.0046121 0)
(0.131667 -0.00467094 0)
(0.132601 -0.00472491 0)
(0.133525 -0.00477357 0)
(0.13444 -0.00481643 0)
(0.135344 -0.00485298 0)
(0.136235 -0.00488262 0)
(0.137114 -0.00490471 0)
(0.137979 -0.0049185 0)
(0.138829 -0.00492321 0)
(0.139663 -0.00491792 0)
(0.14048 -0.00490161 0)
(0.141279 -0.00487314 0)
(0.142059 -0.00483122 0)
(0.142818 -0.00477439 0)
(0.143557 -0.00470101 0)
(0.144273 -0.00460921 0)
(0.144966 -0.00449685 0)
(0.145636 -0.00436153 0)
(0.146281 -0.00420049 0)
(0.1469 -0.0040106 0)
(0.147495 -0.00378829 0)
(0.148063 -0.00352953 0)
(0.148607 -0.00322973 0)
(0.149127 -0.00288374 0)
(0.149625 -0.0024858 0)
(0.150103 -0.00202954 0)
(0.150566 -0.00150803 0)
(0.151019 -0.000913851 0)
(0.151471 -0.000239249 0)
(0.151931 0.000523427 0)
(0.152412 0.00137975 0)
(0.15293 0.00233474 0)
(0.153505 0.00339064 0)
(0.154159 0.00454549 0)
(0.154918 0.00579128 0)
(0.15581 0.00711203 0)
(0.156858 0.00848179 0)
(0.158082 0.00986348 0)
(0.159491 0.0112094 0)
(0.161074 0.0124655 0)
(0.10001 -0.000224171 0)
(0.100137 -0.000448113 0)
(0.10034 -0.000651378 0)
(0.100611 -0.000840749 0)
(0.100945 -0.00101924 0)
(0.101337 -0.00118888 0)
(0.10178 -0.00135127 0)
(0.10227 -0.00150768 0)
(0.102804 -0.00165909 0)
(0.103377 -0.00180626 0)
(0.103987 -0.00194982 0)
(0.104631 -0.00209026 0)
(0.105306 -0.00222799 0)
(0.10601 -0.00236332 0)
(0.106741 -0.00249652 0)
(0.107496 -0.0026278 0)
(0.108274 -0.00275732 0)
(0.109073 -0.00288521 0)
(0.109892 -0.00301155 0)
(0.110728 -0.0031364 0)
(0.11158 -0.0032598 0)
(0.112447 -0.00338176 0)
(0.113328 -0.00350226 0)
(0.114221 -0.00362127 0)
(0.115124 -0.00373874 0)
(0.116038 -0.00385461 0)
(0.116959 -0.00396879 0)
(0.117888 -0.00408117 0)
(0.118823 -0.00419164 0)
(0.119763 -0.00430007 0)
(0.120708 -0.0044063 0)
(0.121655 -0.00451018 0)
(0.122603 -0.00461151 0)
(0.123553 -0.00471011 0)
(0.124502 -0.00480575 0)
(0.125451 -0.00489819 0)
(0.126397 -0.00498717 0)
(0.12734 -0.00507241 0)
(0.128278 -0.00515359 0)
(0.129212 -0.0052304 0)
(0.130139 -0.00530244 0)
(0.13106 -0.00536933 0)
(0.131972 -0.00543063 0)
(0.132876 -0.00548584 0)
(0.13377 -0.00553445 0)
(0.134653 -0.00557588 0)
(0.135524 -0.00560947 0)
(0.136383 -0.00563453 0)
(0.137228 -0.00565027 0)
(0.138058 -0.00565582 0)
(0.138874 -0.00565022 0)
(0.139673 -0.00563239 0)
(0.140456 -0.00560114 0)
(0.14122 -0.00555513 0)
(0.141966 -0.00549288 0)
(0.142692 -0.00541271 0)
(0.143399 -0.00531277 0)
(0.144086 -0.00519096 0)
(0.144751 -0.00504495 0)
(0.145396 -0.00487213 0)
(0.14602 -0.00466961 0)
(0.146623 -0.00443417 0)
(0.147207 -0.00416226 0)
(0.147773 -0.00384998 0)
(0.148322 -0.00349312 0)
(0.148858 -0.00308718 0)
(0.149383 -0.00262744 0)
(0.149904 -0.00210909 0)
(0.150426 -0.00152739 0)
(0.150957 -0.000877921 0)
(0.151507 -0.000156664 0)
(0.152088 0.000638856 0)
(0.152711 0.0015076 0)
(0.153392 0.00244718 0)
(0.154147 0.00345156 0)
(0.154992 0.0045102 0)
(0.155943 0.00560738 0)
(0.157012 0.00672177 0)
(0.158206 0.0078268 0)
(0.159527 0.00889209 0)
(0.160962 0.00988683 0)
(0.100007 -0.000251638 0)
(0.100131 -0.000505965 0)
(0.100328 -0.00073738 0)
(0.100592 -0.000953326 0)
(0.100917 -0.00115711 0)
(0.101298 -0.00135088 0)
(0.101731 -0.00153639 0)
(0.10221 -0.00171506 0)
(0.102732 -0.00188799 0)
(0.103294 -0.00205604 0)
(0.103892 -0.00221992 0)
(0.104523 -0.00238019 0)
(0.105184 -0.00253731 0)
(0.105875 -0.00269165 0)
(0.106591 -0.0028435 0)
(0.107332 -0.00299311 0)
(0.108095 -0.00314066 0)
(0.108878 -0.00328628 0)
(0.109681 -0.00343009 0)
(0.110501 -0.00357215 0)
(0.111337 -0.0037125 0)
(0.112187 -0.00385114 0)
(0.11305 -0.00398807 0)
(0.113925 -0.00412325 0)
(0.11481 -0.00425662 0)
(0.115705 -0.0043881 0)
(0.116608 -0.00451759 0)
(0.117518 -0.00464499 0)
(0.118433 -0.00477015 0)
(0.119353 -0.00489292 0)
(0.120277 -0.00501315 0)
(0.121203 -0.00513063 0)
(0.122131 -0.00524517 0)
(0.123059 -0.00535653 0)
(0.123987 -0.00546448 0)
(0.124913 -0.00556875 0)
(0.125837 -0.00566904 0)
(0.126758 -0.00576505 0)
(0.127674 -0.00585642 0)
(0.128585 -0.00594279 0)
(0.12949 -0.00602375 0)
(0.130387 -0.00609886 0)
(0.131277 -0.00616765 0)
(0.132158 -0.00622958 0)
(0.133029 -0.00628409 0)
(0.13389 -0.00633056 0)
(0.134739 -0.0063683 0)
(0.135576 -0.00639657 0)
(0.1364 -0.00641453 0)
(0.13721 -0.00642128 0)
(0.138006 -0.00641584 0)
(0.138787 -0.00639709 0)
(0.139552 -0.00636384 0)
(0.140301 -0.00631474 0)
(0.141032 -0.00624834 0)
(0.141747 -0.00616301 0)
(0.142444 -0.00605696 0)
(0.143124 -0.00592825 0)
(0.143786 -0.00577472 0)
(0.144431 -0.00559405 0)
(0.145059 -0.0053837 0)
(0.145672 -0.00514093 0)
(0.14627 -0.00486285 0)
(0.146856 -0.0045464 0)
(0.147433 -0.00418841 0)
(0.148002 -0.00378571 0)
(0.14857 -0.00333521 0)
(0.149139 -0.00283407 0)
(0.149718 -0.00227987 0)
(0.150311 -0.00167086 0)
(0.150929 -0.00100617 0)
(0.15158 -0.000285866 0)
(0.152276 0.000488348 0)
(0.153024 0.00130994 0)
(0.153835 0.00217144 0)
(0.15472 0.00306258 0)
(0.155685 0.00397015 0)
(0.156737 0.00487797 0)
(0.157877 0.00576768 0)
(0.159102 0.00662007 0)
(0.160403 0.00741732 0)
(0.100003 -0.000279948 0)
(0.100125 -0.000565755 0)
(0.100316 -0.00082657 0)
(0.100572 -0.00107034 0)
(0.100887 -0.00130067 0)
(0.101259 -0.00151982 0)
(0.10168 -0.00172967 0)
(0.102147 -0.00193179 0)
(0.102657 -0.00212738 0)
(0.103205 -0.00231743 0)
(0.103789 -0.0025027 0)
(0.104406 -0.00268384 0)
(0.105053 -0.00286136 0)
(0.105728 -0.00303566 0)
(0.106429 -0.0032071 0)
(0.107154 -0.00337594 0)
(0.1079 -0.00354238 0)
(0.108667 -0.00370659 0)
(0.109452 -0.00386868 0)
(0.110253 -0.00402873 0)
(0.111071 -0.00418678 0)
(0.111902 -0.00434283 0)
(0.112746 -0.00449689 0)
(0.113601 -0.00464889 0)
(0.114467 -0.00479879 0)
(0.115341 -0.00494648 0)
(0.116223 -0.00509187 0)
(0.117111 -0.00523481 0)
(0.118005 -0.00537517 0)
(0.118903 -0.00551277 0)
(0.119804 -0.00564743 0)
(0.120708 -0.00577893 0)
(0.121612 -0.00590705 0)
(0.122517 -0.00603154 0)
(0.123421 -0.00615213 0)
(0.124324 -0.00626852 0)
(0.125224 -0.00638039 0)
(0.12612 -0.0064874 0)
(0.127011 -0.00658918 0)
(0.127898 -0.00668532 0)
(0.128778 -0.00677538 0)
(0.129651 -0.00685889 0)
(0.130516 -0.00693534 0)
(0.131373 -0.00700418 0)
(0.13222 -0.00706479 0)
(0.133056 -0.00711653 0)
(0.133882 -0.00715869 0)
(0.134696 -0.00719049 0)
(0.135498 -0.00721109 0)
(0.136287 -0.00721958 0)
(0.137063 -0.00721495 0)
(0.137824 -0.00719613 0)
(0.138571 -0.00716192 0)
(0.139303 -0.00711106 0)
(0.140021 -0.00704214 0)
(0.140723 -0.00695367 0)
(0.14141 -0.00684401 0)
(0.142083 -0.00671141 0)
(0.142741 -0.00655403 0)
(0.143386 -0.00636987 0)
(0.144018 -0.00615687 0)
(0.144638 -0.00591288 0)
(0.14525 -0.00563569 0)
(0.145854 -0.00532315 0)
(0.146453 -0.00497312 0)
(0.147051 -0.00458369 0)
(0.147652 -0.00415319 0)
(0.14826 -0.00368039 0)
(0.148881 -0.00316467 0)
(0.14952 -0.00260617 0)
(0.150184 -0.00200599 0)
(0.15088 -0.00136638 0)
(0.151615 -0.000690696 0)
(0.152397 1.71782e-05 0)
(0.153232 0.000749649 0)
(0.154123 0.00149591 0)
(0.155075 0.00224567 0)
(0.156088 0.0029873 0)
(0.157163 0.0037085 0)
(0.158294 0.00439725 0)
(0.159473 0.00504314 0)
(0.0999992 -0.000309119 0)
(0.100119 -0.000627462 0)
(0.100305 -0.000918896 0)
(0.100551 -0.00119171 0)
(0.100857 -0.00144981 0)
(0.101218 -0.00169557 0)
(0.101627 -0.00193097 0)
(0.102082 -0.0021577 0)
(0.102578 -0.0023771 0)
(0.103112 -0.00259024 0)
(0.103681 -0.00279798 0)
(0.104282 -0.00300101 0)
(0.104913 -0.00319992 0)
(0.105571 -0.00339516 0)
(0.106255 -0.00358711 0)
(0.106962 -0.00377607 0)
(0.10769 -0.00396227 0)
(0.108438 -0.00414589 0)
(0.109204 -0.00432705 0)
(0.109986 -0.00450584 0)
(0.110783 -0.00468232 0)
(0.111593 -0.00485649 0)
(0.112416 -0.00502833 0)
(0.11325 -0.0051978 0)
(0.114093 -0.00536482 0)
(0.114945 -0.0055293 0)
(0.115804 -0.00569111 0)
(0.116669 -0.00585011 0)
(0.117539 -0.00600614 0)
(0.118413 -0.00615901 0)
(0.11929 -0.00630851 0)
(0.120169 -0.00645441 0)
(0.121048 -0.00659646 0)
(0.121928 -0.00673439 0)
(0.122806 -0.0068679 0)
(0.123683 -0.00699668 0)
(0.124556 -0.00712037 0)
(0.125426 -0.0072386 0)
(0.126292 -0.00735099 0)
(0.127152 -0.00745708 0)
(0.128006 -0.00755643 0)
(0.128852 -0.00764853 0)
(0.129691 -0.00773285 0)
(0.130522 -0.00780881 0)
(0.131343 -0.00787578 0)
(0.132155 -0.0079331 0)
(0.132956 -0.00798004 0)
(0.133746 -0.00801583 0)
(0.134524 -0.00803964 0)
(0.135291 -0.00805055 0)
(0.136045 -0.00804762 0)
(0.136786 -0.0080298 0)
(0.137515 -0.00799597 0)
(0.13823 -0.00794496 0)
(0.138933 -0.0078755 0)
(0.139622 -0.00778625 0)
(0.140299 -0.00767581 0)
(0.140964 -0.0075427 0)
(0.141617 -0.00738541 0)
(0.14226 -0.00720236 0)
(0.142894 -0.00699199 0)
(0.143521 -0.00675276 0)
(0.144142 -0.00648319 0)
(0.144759 -0.00618193 0)
(0.145376 -0.0058478 0)
(0.145995 -0.00547993 0)
(0.14662 -0.00507779 0)
(0.147255 -0.00464136 0)
(0.147904 -0.00417121 0)
(0.148571 -0.00366863 0)
(0.149262 -0.00313577 0)
(0.149981 -0.0025757 0)
(0.150733 -0.00199249 0)
(0.151522 -0.00139111 0)
(0.152352 -0.000777218 0)
(0.153226 -0.000156204 0)
(0.154145 0.000463508 0)
(0.155108 0.00107274 0)
(0.156112 0.00166197 0)
(0.157154 0.00222373 0)
(0.158228 0.00275198 0)
(0.099995 -0.000339154 0)
(0.100112 -0.000691052 0)
(0.100293 -0.00101428 0)
(0.100531 -0.00131732 0)
(0.100826 -0.00160439 0)
(0.101175 -0.00187795 0)
(0.101572 -0.00214007 0)
(0.102013 -0.00239257 0)
(0.102495 -0.0026369 0)
(0.103013 -0.00287421 0)
(0.103566 -0.00310545 0)
(0.104151 -0.0033314 0)
(0.104764 -0.00355267 0)
(0.105405 -0.00376978 0)
(0.106069 -0.00398314 0)
(0.106757 -0.00419309 0)
(0.107465 -0.00439988 0)
(0.108193 -0.0046037 0)
(0.108937 -0.00480471 0)
(0.109698 -0.00500298 0)
(0.110473 -0.00519858 0)
(0.111261 -0.00539152 0)
(0.112061 -0.00558178 0)
(0.112871 -0.00576931 0)
(0.11369 -0.00595402 0)
(0.114518 -0.00613581 0)
(0.115352 -0.00631454 0)
(0.116191 -0.00649007 0)
(0.117036 -0.00666219 0)
(0.117884 -0.00683072 0)
(0.118734 -0.00699543 0)
(0.119586 -0.00715606 0)
(0.120439 -0.00731234 0)
(0.121291 -0.00746399 0)
(0.122142 -0.00761068 0)
(0.122991 -0.00775207 0)
(0.123836 -0.00788779 0)
(0.124678 -0.00801746 0)
(0.125516 -0.00814063 0)
(0.126348 -0.00825688 0)
(0.127173 -0.00836571 0)
(0.127992 -0.00846661 0)
(0.128803 -0.00855902 0)
(0.129606 -0.00864237 0)
(0.130401 -0.00871602 0)
(0.131186 -0.0087793 0)
(0.131961 -0.00883151 0)
(0.132726 -0.00887188 0)
(0.13348 -0.00889961 0)
(0.134223 -0.00891384 0)
(0.134955 -0.00891368 0)
(0.135675 -0.00889817 0)
(0.136384 -0.00886629 0)
(0.137082 -0.00881702 0)
(0.137769 -0.00874924 0)
(0.138444 -0.00866185 0)
(0.13911 -0.00855369 0)
(0.139766 -0.0084236 0)
(0.140413 -0.00827042 0)
(0.141053 -0.00809304 0)
(0.141686 -0.00789038 0)
(0.142315 -0.00766147 0)
(0.142941 -0.00740549 0)
(0.143566 -0.0071218 0)
(0.144194 -0.00680999 0)
(0.144826 -0.00646999 0)
(0.145465 -0.00610209 0)
(0.146115 -0.00570707 0)
(0.146779 -0.00528619 0)
(0.14746 -0.00484132 0)
(0.148161 -0.004375 0)
(0.148885 -0.00389038 0)
(0.149636 -0.00339131 0)
(0.150415 -0.00288226 0)
(0.151224 -0.00236826 0)
(0.152063 -0.00185469 0)
(0.152935 -0.00134697 0)
(0.153837 -0.000850088 0)
(0.154768 -0.000368604 0)
(0.155724 9.21234e-05 0)
(0.156701 0.000528132 0)
(0.0999905 -0.000370041 0)
(0.100106 -0.000756465 0)
(0.10028 -0.00111259 0)
(0.10051 -0.00144702 0)
(0.100795 -0.0017642 0)
(0.101131 -0.0020667 0)
(0.101515 -0.00235668 0)
(0.101942 -0.00263606 0)
(0.102408 -0.00290639 0)
(0.10291 -0.00316892 0)
(0.103446 -0.00342469 0)
(0.104012 -0.00367452 0)
(0.104607 -0.00391909 0)
(0.105228 -0.00415898 0)
(0.105872 -0.00439463 0)
(0.106539 -0.0046264 0)
(0.107226 -0.00485457 0)
(0.107931 -0.00507936 0)
(0.108653 -0.00530093 0)
(0.10939 -0.00551937 0)
(0.110141 -0.00573475 0)
(0.110905 -0.00594708 0)
(0.11168 -0.00615634 0)
(0.112464 -0.00636247 0)
(0.113258 -0.00656538 0)
(0.114059 -0.00676496 0)
(0.114866 -0.00696106 0)
(0.115678 -0.00715351 0)
(0.116495 -0.00734211 0)
(0.117315 -0.00752664 0)
(0.118137 -0.00770687 0)
(0.11896 -0.00788251 0)
(0.119784 -0.00805329 0)