/*--------------------------------*- C++ -*----------------------------------*\
| =========                 |                                                 |
| \\      /  F ield         | OpenFOAM: The Open Source CFD Toolbox           |
|  \\    /   O peration     | Version:  2112                                  |
|   \\  /    A nd           | Website:  www.openfoam.com                      |
|    \\/     M anipulation  |                                                 |
\*---------------------------------------------------------------------------*/
FoamFile
{
    version     2.0;
    format      ascii;
    arch        "LSB;label=32;scalar=64";
    class       volVectorField;
    location    "9";
    object      flux;
}
// * * * * * * * * * * * * * * * * * * * * * * * * * * * * * * * * * * * * * //

dimensions      [0 1 -1 1 0 0 0];

internalField   nonuniform List<vector> 
512
(
(0.0213573 -23.1501 0)
(0.0614994 -22.9779 0)
(0.094885 -22.6547 0)
(0.119496 -22.2145 0)
(0.135407 -21.6944 0)
(0.14398 -21.1276 0)
(0.147029 -20.5398 0)
(0.146277 -19.9494 0)
(0.143107 -19.3684 0)
(0.138517 -18.8039 0)
(0.133164 -18.2599 0)
(0.127444 -17.7384 0)
(0.121561 -17.2402 0)
(0.115585 -16.7658 0)
(0.109497 -16.3155 0)
(0.10322 -15.8897 0)
(0.0966361 -15.4896 0)
(0.089609 -15.1164 0)
(0.0819955 -14.7724 0)
(0.0736623 -14.4601 0)
(0.0645059 -14.1827 0)
(0.0544775 -13.9436 0)
(0.0436163 -13.7464 0)
(0.0320916 -13.5943 0)
(0.0202529 -13.4895 0)
(0.00867965 -13.4324 0)
(-0.00178771 -13.4207 0)
(-0.010074 -13.4478 0)
(-0.0150123 -13.5029 0)
(-0.0156631 -13.5701 0)
(-0.0118007 -13.6305 0)
(-0.00438751 -13.6663 0)
(0.0647148 -23.1931 0)
(0.186187 -23.0157 0)
(0.286848 -22.684 0)
(0.360664 -22.2344 0)
(0.408056 -21.7061 0)
(0.43332 -21.1328 0)
(0.442039 -20.5405 0)
(0.439436 -19.9471 0)
(0.429676 -19.3642 0)
(0.41574 -18.7987 0)
(0.399584 -18.2542 0)
(0.382374 -17.7325 0)
(0.364706 -17.2343 0)
(0.346783 -16.7598 0)
(0.328541 -16.3093 0)
(0.309737 -15.8833 0)
(0.29002 -15.4828 0)
(0.268975 -15.1091 0)
(0.246168 -14.7644 0)
(0.221195 -14.4513 0)
(0.193738 -14.1731 0)
(0.163644 -13.9331 0)
(0.131018 -13.7351 0)
(0.0963568 -13.5824 0)
(0.0606961 -13.4775 0)
(0.0257662 -13.421 0)
(-0.00590494 -13.4108 0)
(-0.0310559 -13.4407 0)
(-0.0461065 -13.4997 0)
(-0.0481165 -13.5716 0)
(-0.0362901 -13.6365 0)
(-0.0135033 -13.6751 0)
(0.110061 -23.2805 0)
(0.316078 -23.0921 0)
(0.485523 -22.7427 0)
(0.608438 -22.2741 0)
(0.686236 -21.729 0)
(0.726797 -21.1428 0)
(0.739878 -20.5414 0)
(0.734385 -19.9421 0)
(0.71729 -19.3558 0)
(0.69352 -18.7884 0)
(0.666269 -18.2429 0)
(0.637419 -17.7208 0)
(0.607917 -17.2224 0)
(0.578064 -16.7478 0)
(0.547727 -16.297 0)
(0.516486 -15.8706 0)
(0.483741 -15.4693 0)
(0.448787 -15.0946 0)
(0.410888 -14.7485 0)
(0.369355 -14.4339 0)
(0.323638 -14.1538 0)
(0.273451 -13.912 0)
(0.218938 -13.7124 0)
(0.160882 -13.5585 0)
(0.100967 -13.4533 0)
(0.0420485 -13.3979 0)
(-0.0116424 -13.3907 0)
(-0.0545546 -13.4262 0)
(-0.080455 -13.4932 0)
(-0.0840263 -13.5747 0)
(-0.0635221 -13.6489 0)
(-0.0236771 -13.6934 0)
(0.158932 -23.415 0)
(0.455112 -23.2087 0)
(0.69583 -22.8312 0)
(0.86749 -22.333 0)
(0.973727 -21.7623 0)
(1.02714 -21.1566 0)
(1.04236 -20.5418 0)
(1.03223 -19.934 0)
(1.00657 -19.3426 0)
(0.97217 -18.7725 0)
(0.933354 -18.2258 0)
(0.89263 -17.7032 0)
(0.851219 -17.2046 0)
(0.809469 -16.7298 0)
(0.767143 -16.2787 0)
(0.723617 -15.8515 0)
(0.678021 -15.4491 0)
(0.629343 -15.0728 0)
(0.576527 -14.7248 0)
(0.518573 -14.4077 0)
(0.454668 -14.1249 0)
(0.384355 -13.8803 0)
(0.307759 -13.6781 0)
(0.225889 -13.5224 0)
(0.141007 -13.4165 0)
(0.0570411 -13.3626 0)
(-0.0200592 -13.3599 0)
(-0.0822942 -13.4037 0)
(-0.120378 -13.4829 0)
(-0.125951 -13.5796 0)
(-0.0955975 -13.6686 0)
(-0.0357377 -13.7227 0)
(0.213221 -23.6011 0)
(0.60801 -23.3681 0)
(0.923402 -22.9498 0)
(1.1429 -22.4099 0)
(1.27442 -21.8042 0)
(1.33704 -21.1727 0)
(1.35118 -20.5404 0)
(1.33397 -19.9217 0)
(1.29804 -19.3241 0)
(1.25193 -18.7508 0)
(1.20092 -18.2026 0)
(1.14802 -17.6795 0)
(1.09461 -17.1808 0)
(1.04102 -16.7059 0)
(0.986866 -16.2543 0)
(0.931274 -15.8263 0)
(0.873081 -15.4224 0)
(0.810946 -15.044 0)
(0.743463 -14.6933 0)
(0.669294 -14.3729 0)
(0.587318 -14.0864 0)
(0.49685 -13.838 0)
(0.397921 -13.6322 0)
(0.291673 -13.4736 0)
(0.180841 -13.3667 0)
(0.07034 -13.3144 0)
(-0.0321726 -13.3174 0)
(-0.116057 -13.3721 0)
(-0.16842 -13.4682 0)
(-0.176851 -13.5863 0)
(-0.135061 -13.6969 0)
(-0.050717 -13.7654 0)
(0.275422 -23.8455 0)
(0.780758 -23.5739 0)
(1.17495 -23.0989 0)
(1.4403 -22.5033 0)
(1.59234 -21.8527 0)
(1.65906 -21.189 0)
(1.66783 -20.5356 0)
(1.64038 -19.9042 0)
(1.59206 -19.2995 0)
(1.5329 -18.7227 0)
(1.46896 -18.1732 0)
(1.40353 -17.6498 0)
(1.33805 -17.1511 0)
(1.27273 -16.6761 0)
(1.20696 -16.2241 0)
(1.13959 -15.7949 0)
(1.06914 -15.3892 0)
(0.993899 -15.0083 0)
(0.912088 -14.6541 0)
(0.821986 -14.3296 0)
(0.722113 -14.0384 0)
(0.611483 -13.785 0)
(0.48994 -13.5744 0)
(0.35863 -13.412 0)
(0.22062 -13.3031 0)
(0.0816683 -13.2523 0)
(-0.0489206 -13.2619 0)
(-0.157685 -13.3302 0)
(-0.22744 -13.4479 0)
(-0.2403 -13.5947 0)
(-0.185174 -13.7357 0)
(-0.0699861 -13.8252 0)
(0.348998 -24.1577 0)
(0.981292 -23.8306 0)
(1.45871 -23.2781 0)
(1.76602 -22.6105 0)
(1.9316 -21.9044 0)
(1.99556 -21.2026 0)
(1.99354 -20.5254 0)
(1.95201 -19.88 0)
(1.8888 -19.268 0)
(1.81508 -18.6879 0)
(1.73738 -18.1373 0)
(1.65906 -17.6139 0)
(1.58146 -17.1155 0)
(1.50455 -16.6406 0)
(1.42745 -16.1881 0)
(1.34869 -15.7577 0)
(1.26641 -15.3499 0)
(1.17851 -14.9658 0)
(1.0828 -14.6075 0)
(0.977142 -14.2779 0)
(0.859623 -13.9809 0)
(0.728873 -13.7212 0)
(0.58443 -13.5045 0)
(0.427295 -13.3369 0)
(0.260666 -13.225 0)
(0.0909347 -13.1751 0)
(-0.0711006 -13.1917 0)
(-0.209049 -13.2758 0)
(-0.300679 -13.4203 0)
(-0.320736 -13.6045 0)
(-0.250308 -13.7873 0)
(-0.0954669 -13.9072 0)
(0.438996 -24.5517 0)
(1.22055 -24.1435 0)
(1.78499 -23.4862 0)
(2.12717 -22.7272 0)
(2.29625 -21.955 0)
(2.34857 -21.2102 0)
(2.32913 -20.5071 0)
(2.26906 -19.8475 0)
(2.18816 -19.2285 0)
(2.09826 -18.6456 0)
(2.00595 -18.0946 0)
(1.91442 -17.5717 0)
(1.8247 -17.074 0)
(1.73643 -16.5995 0)
(1.64838 -16.1466 0)
(1.55868 -15.7149 0)
(1.46509 -15.3047 0)
(1.36509 -14.9169 0)
(1.25603 -14.5538 0)
(1.13529 -14.2181 0)
(1.00047 -13.9141 0)
(0.849715 -13.6467 0)
(0.682127 -13.4222 0)
(0.498366 -13.2478 0)
(0.301521 -13.1313 0)
(0.0983075 -13.0811 0)
(-0.0992775 -13.1046 0)
(-0.271977 -13.2062 0)
(-0.391809 -13.3827 0)
(-0.423777 -13.6147 0)
(-0.336539 -13.8544 0)
(-0.129981 -14.0192 0)
(0.5531 -25.0478 0)
(1.51408 -24.5188 0)
(2.16685 -23.7196 0)
(2.5316 -22.8474 0)
(2.69011 -21.9988 0)
(2.7195 -21.2074 0)
(2.67488 -20.478 0)
(2.59132 -19.8049 0)
(2.48976 -19.18 0)
(2.38204 -18.5954 0)
(2.27434 -18.0448 0)
(2.16933 -17.5232 0)
(2.06758 -17.0268 0)
(1.96827 -16.5529 0)
(1.86972 -16.0998 0)
(1.76966 -15.6667 0)
(1.6654 -15.2538 0)
(1.55396 -14.8619 0)
(1.4322 -14.4931 0)
(1.29697 -14.1504 0)
(1.14532 -13.8381 0)
(0.9748 -13.5615 0)
(0.783902 -13.3275 0)
(0.572745 -13.1442 0)
(0.344004 -13.0211 0)
(0.104305 -12.9687 0)
(-0.13365 -12.9979 0)
(-0.348103 -13.1179 0)
(-0.504902 -13.3312 0)
(-0.556594 -13.6228 0)
(-0.452574 -13.9402 0)
(-0.17785 -14.1722 0)
(0.703504 -25.6761 0)
(1.88466 -24.9616 0)
(2.62071 -23.9712 0)
(2.98758 -22.9616 0)
(3.11624 -22.0282 0)
(3.10895 -21.1891 0)
(3.03037 -20.4348 0)
(2.91808 -19.7503 0)
(2.79291 -19.1213 0)
(2.66583 -18.5367 0)
(2.54205 -17.9878 0)
(2.42343 -17.4684 0)
(2.30985 -16.9739 0)
(2.19992 -16.5011 0)
(2.09145 -16.048 0)
(1.9817 -15.6135 0)
(1.86752 -15.1976 0)
(1.74543 -14.8011 0)
(1.61177 -14.4259 0)
(1.4628 -14.0751 0)
(1.29493 -13.7531 0)
(1.10501 -13.4656 0)
(0.890781 -13.22 0)
(0.651562 -13.0255 0)
(0.389267 -12.8931 0)
(0.109903 -12.8358 0)
(-0.173866 -12.8684 0)
(-0.43862 -13.0061 0)
(-0.64426 -13.2599 0)
(-0.728293 -13.6243 0)
(-0.611238 -14.0471 0)
(-0.245962 -14.3829 0)
(0.910364 -26.4831 0)
(2.36652 -25.4734 0)
(3.16687 -24.2277 0)
(3.50311 -23.0567 0)
(3.57636 -22.0342 0)
(3.51622 -21.1495 0)
(3.39428 -20.3742 0)
(3.24806 -19.6817 0)
(3.09655 -19.0516 0)
(2.94879 -18.4691 0)
(2.80847 -17.9235 0)
(2.67629 -17.4074 0)
(2.55123 -16.9156 0)
(2.43122 -16.4445 0)
(2.31352 -15.9916 0)
(2.19487 -15.5557 0)
(2.07163 -15.1366 0)
(1.93981 -14.7349 0)
(1.79518 -14.3526 0)
(1.63338 -13.9926 0)
(1.45009 -13.6594 0)
(1.24135 -13.3592 0)
(1.00395 -13.0997 0)
(0.736196 -12.8912 0)
(0.438845 -12.7462 0)
(0.116645 -12.6803 0)
(-0.218794 -12.7125 0)
(-0.543879 -12.8651 0)
(-0.813994 -13.1609 0)
(-0.950185 -13.6109 0)
(-0.831892 -14.1755 0)
(-0.345737 -14.6773 0)
(1.20836 -27.5425 0)
(3.01233 -26.0442 0)
(3.82906 -24.4656 0)
(4.08437 -23.1147 0)
(4.06983 -22.0056 0)
(3.93893 -21.0826 0)
(3.76426 -20.2929 0)
(3.57937 -19.5976 0)
(3.39924 -18.97 0)
(3.2299 -18.3922 0)
(3.07286 -17.8518 0)
(2.92736 -17.3404 0)
(2.79135 -16.8522 0)
(2.66195 -16.3832 0)
(2.53583 -15.9309 0)
(2.40921 -15.4937 0)
(2.27791 -15.0712 0)
(2.13743 -14.6639 0)
(1.98292 -14.2736 0)
(1.80936 -13.9034 0)
(1.61166 -13.5575 0)
(1.3849 -13.2425 0)
(1.12477 -12.9665 0)
(0.828288 -12.7409 0)
(0.494695 -12.5795 0)
(0.126756 -12.5002 0)
(-0.266253 -12.5263 0)
(-0.662822 -12.6881 0)
(-1.01716 -13.0231 0)
(-1.23558 -13.5686 0)
(-1.14444 -14.3191 0)
(-0.496863 -15.0968 0)
(1.65951 -28.9764 0)
(3.90496 -26.6351 0)
(4.63162 -24.6465 0)
(4.73309 -23.1122 0)
(4.59239 -21.9306 0)
(4.37259 -20.9824 0)
(4.1368 -20.188 0)
(3.90948 -19.4965 0)
(3.69924 -18.8761 0)
(3.50793 -18.306 0)
(3.33437 -17.7728 0)
(3.17607 -17.2676 0)
(3.02982 -16.784 0)
(2.89187 -16.3178 0)
(2.75829 -15.8664 0)
(2.62473 -15.428 0)
(2.48651 -15.002 0)
(2.33858 -14.5887 0)
(2.17546 -14.1897 0)
(1.99143 -13.808 0)
(1.78053 -13.4479 0)
(1.53685 -13.116 0)
(1.25474 -12.8208 0)
(0.929729 -12.5745 0)
(0.559205 -12.3921 0)
(0.143207 -12.2936 0)
(-0.312746 -12.3062 0)
(-0.792241 -12.4676 0)
(-1.25423 -12.8324 0)
(-1.59821 -13.4747 0)
(-1.59603 -14.4557 0)
(-0.734592 -15.7107 0)
(2.37905 -30.9957 0)
(5.17729 -27.1377 0)
(5.59047 -24.7139 0)
(5.44235 -23.0216 0)
(5.13473 -21.7972 0)
(4.81024 -20.8438 0)
(4.50723 -20.0573 0)
(4.23533 -19.3777 0)
(3.9945 -18.7695 0)
(3.78152 -18.2106 0)
(3.59208 -17.6869 0)
(3.42178 -17.1893 0)
(3.26622 -16.7114 0)
(3.12071 -16.2487 0)
(2.98075 -15.7988 0)
(2.84144 -15.3592 0)
(2.69756 -14.9296 0)
(2.54356 -14.5099 0)
(2.37326 -14.1015 0)
(2.18026 -13.7073 0)
(1.95766 -13.3312 0)
(1.69846 -12.9804 0)
(1.39552 -12.6628 0)
(1.04262 -12.3922 0)
(0.635159 -12.1838 0)
(0.169723 -12.0593 0)
(-0.353268 -12.0488 0)
(-0.92594 -12.1964 0)
(-1.52071 -12.5724 0)
(-2.04723 -13.2963 0)
(-2.26244 -14.5239 0)
(-1.12437 -16.6386 0)
(3.58852 -33.9795 0)
(7.04587 -27.2818 0)
(6.68967 -24.5985 0)
(6.19148 -22.814 0)
(5.68127 -21.596 0)
(5.24251 -20.6636 0)
(4.86987 -19.8999 0)
(4.55341 -19.2411 0)
(4.2828 -18.6505 0)
(4.04923 -18.1064 0)
(3.845 -17.5944 0)
(3.66381 -17.1062 0)
(3.50011 -16.635 0)
(3.34818 -16.1765 0)
(3.20305 -15.7285 0)
(3.05932 -15.2879 0)
(2.91115 -14.8548 0)
(2.75265 -14.4283 0)
(2.57676 -14.0096 0)
(2.37654 -13.6021 0)
(2.14398 -13.2083 0)
(1.87107 -12.8365 0)
(1.54884 -12.493 0)
(1.16922 -12.1943 0)
(0.725677 -11.9545 0)
(0.210697 -11.7963 0)
(-0.381289 -11.7519 0)
(-1.05402 -11.8678 0)
(-1.80418 -12.2252 0)
(-2.57395 -12.9917 0)
(-3.26718 -14.3701 0)
(-1.79194 -18.0946 0)
(5.7279 -38.6378 0)
(9.86783 -26.4223 0)
(7.82437 -24.2583 0)
(6.9436 -22.4649 0)
(6.20996 -21.3234 0)
(5.65826 -20.4411 0)
(5.21848 -19.7163 0)
(4.86002 -19.0874 0)
(4.56184 -18.52 0)
(4.30961 -17.9942 0)
(4.09217 -17.4959 0)
(3.90146 -17.0189 0)
(3.73108 -16.5554 0)
(3.57396 -16.1016 0)
(3.42503 -15.6564 0)
(3.27832 -15.2148 0)
(3.12736 -14.7782 0)
(2.96612 -14.3448 0)
(2.78639 -13.9151 0)
(2.58095 -13.4934 0)
(2.34046 -13.0798 0)
(2.05608 -12.6854 0)
(1.71659 -12.3121 0)
(1.31191 -11.9817 0)
(0.834151 -11.7046 0)
(0.271027 -11.5049 0)
(-0.389001 -11.4146 0)
(-1.1626 -11.4787 0)
(-2.08266 -11.7754 0)
(-3.1197 -12.534 0)
(-4.8139 -13.6298 0)
(-2.98663 -20.4808 0)
)
;

boundaryField
{
    left
    {
        type            calculated;
        value           nonuniform List<vector> 
16
(
(0 -23.1501 0)
(0 -23.1931 0)
(0 -23.2805 0)
(0 -23.415 0)
(0 -23.6011 0)
(0 -23.8455 0)
(0 -24.1577 0)
(0 -24.5517 0)
(0 -25.0478 0)
(0 -25.6761 0)
(0 -26.4831 0)
(0 -27.5425 0)
(0 -28.9764 0)
(0 -30.9957 0)
(0 -33.9795 0)
(0 -38.6378 0)
)
;
    }
    right
    {
        type            calculated;
        value           nonuniform List<vector> 
16
(
(0 -13.6663 0)
(0 -13.6751 0)
(0 -13.6934 0)
(0 -13.7227 0)
(0 -13.7654 0)
(0 -13.8252 0)
(0 -13.9072 0)
(0 -14.0192 0)
(0 -14.1722 0)
(0 -14.3829 0)
(0 -14.6773 0)
(0 -15.0968 0)
(0 -15.7107 0)
(0 -16.6386 0)
(0 -18.0946 0)
(0 -20.4808 0)
)
;
    }
    interface
    {
        type            calculated;
        value           nonuniform List<vector> 
32
(
(5.7279 -41.5017 0)
(9.86783 -25.6284 0)
(7.82437 -24.0306 0)
(6.9436 -22.2523 0)
(6.20996 -21.1692 0)
(5.65826 -20.3195 0)
(5.21848 -19.6182 0)
(4.86002 -19.0064 0)
(4.56184 -18.452 0)
(4.30961 -17.9362 0)
(4.09217 -17.4453 0)
(3.90146 -16.9742 0)
(3.73108 -16.515 0)
(3.57396 -16.0636 0)
(3.42503 -15.62 0)
(3.27832 -15.1779 0)
(3.12736 -14.7397 0)
(2.96612 -14.3027 0)
(2.78639 -13.8672 0)
(2.58095 -13.4383 0)
(2.34046 -13.0143 0)
(2.05608 -12.6083 0)
(1.71659 -12.2189 0)
(1.31191 -11.8718 0)
(0.834151 -11.5747 0)
(0.271027 -11.3521 0)
(-0.389001 -11.2361 0)
(-1.1626 -11.269 0)
(-2.08266 -11.5234 0)
(-3.1197 -12.2656 0)
(-4.8139 -13.049 0)
(-2.98663 -21.9724 0)
)
;
    }
    bottom
    {
        type            calculated;
        value           nonuniform List<vector> 
32
(
(0.0213573 -23.1394 0)
(0.0614994 -22.9686 0)
(0.094885 -22.6474 0)
(0.119496 -22.2095 0)
(0.135407 -21.6914 0)
(0.14398 -21.1262 0)
(0.147029 -20.5396 0)
(0.146277 -19.95 0)
(0.143107 -19.3694 0)
(0.138517 -18.8051 0)
(0.133164 -18.2613 0)
(0.127444 -17.7398 0)
(0.121561 -17.2417 0)
(0.115585 -16.7673 0)
(0.109497 -16.317 0)
(0.10322 -15.8913 0)
(0.0966361 -15.4913 0)
(0.089609 -15.1183 0)
(0.0819955 -14.7744 0)
(0.0736623 -14.4623 0)
(0.0645059 -14.1851 0)
(0.0544775 -13.9462 0)
(0.0436163 -13.7493 0)
(0.0320916 -13.5973 0)
(0.0202529 -13.4925 0)
(0.00867965 -13.4353 0)
(-0.00178771 -13.4231 0)
(-0.010074 -13.4496 0)
(-0.0150123 -13.5037 0)
(-0.0156631 -13.5697 0)
(-0.0118007 -13.629 0)
(-0.00438751 -13.6641 0)
)
;
    }
    defaultFaces
    {
        type            empty;
    }
}


// ************************************************************************* //
