/*--------------------------------*- C++ -*----------------------------------*\
| =========                 |                                                 |
| \\      /  F ield         | OpenFOAM: The Open Source CFD Toolbox           |
|  \\    /   O peration     | Version:  2112                                  |
|   \\  /    A nd           | Website:  www.openfoam.com                      |
|    \\/     M anipulation  |                                                 |
\*---------------------------------------------------------------------------*/
FoamFile
{
    version     2.0;
    format      ascii;
    arch        "LSB;label=32;scalar=64";
    class       volScalarField;
    location    "9";
    object      gradTy;
}
// * * * * * * * * * * * * * * * * * * * * * * * * * * * * * * * * * * * * * //

dimensions      [0 -1 0 1 0 0 0];

internalField   nonuniform List<scalar> 
512
(
-23.1501
-22.9779
-22.6547
-22.2145
-21.6944
-21.1276
-20.5398
-19.9494
-19.3684
-18.8039
-18.2599
-17.7384
-17.2402
-16.7658
-16.3155
-15.8897
-15.4896
-15.1164
-14.7724
-14.4601
-14.1827
-13.9436
-13.7464
-13.5943
-13.4895
-13.4324
-13.4207
-13.4478
-13.5029
-13.5701
-13.6305
-13.6663
-23.1931
-23.0157
-22.684
-22.2344
-21.7061
-21.1328
-20.5405
-19.9471
-19.3642
-18.7987
-18.2542
-17.7325
-17.2343
-16.7598
-16.3093
-15.8833
-15.4828
-15.1091
-14.7644
-14.4513
-14.1731
-13.9331
-13.7351
-13.5824
-13.4775
-13.421
-13.4108
-13.4407
-13.4997
-13.5716
-13.6365
-13.6751
-23.2805
-23.0921
-22.7427
-22.2741
-21.729
-21.1428
-20.5414
-19.9421
-19.3558
-18.7884
-18.2429
-17.7208
-17.2224
-16.7478
-16.297
-15.8706
-15.4693
-15.0946
-14.7485
-14.4339
-14.1538
-13.912
-13.7124
-13.5585
-13.4533
-13.3979
-13.3907
-13.4262
-13.4932
-13.5747
-13.6489
-13.6934
-23.415
-23.2087
-22.8312
-22.333
-21.7623
-21.1566
-20.5418
-19.934
-19.3426
-18.7725
-18.2258
-17.7032
-17.2046
-16.7298
-16.2787
-15.8515
-15.4491
-15.0728
-14.7248
-14.4077
-14.1249
-13.8803
-13.6781
-13.5224
-13.4165
-13.3626
-13.3599
-13.4037
-13.4829
-13.5796
-13.6686
-13.7227
-23.6011
-23.3681
-22.9498
-22.4099
-21.8042
-21.1727
-20.5404
-19.9217
-19.3241
-18.7508
-18.2026
-17.6795
-17.1808
-16.7059
-16.2543
-15.8263
-15.4224
-15.044
-14.6933
-14.3729
-14.0864
-13.838
-13.6322
-13.4736
-13.3667
-13.3144
-13.3174
-13.3721
-13.4682
-13.5863
-13.6969
-13.7654
-23.8455
-23.5739
-23.0989
-22.5033
-21.8527
-21.189
-20.5356
-19.9042
-19.2995
-18.7227
-18.1732
-17.6498
-17.1511
-16.6761
-16.2241
-15.7949
-15.3892
-15.0083
-14.6541
-14.3296
-14.0384
-13.785
-13.5744
-13.412
-13.3031
-13.2523
-13.2619
-13.3302
-13.4479
-13.5947
-13.7357
-13.8252
-24.1577
-23.8306
-23.2781
-22.6105
-21.9044
-21.2026
-20.5254
-19.88
-19.268
-18.6879
-18.1373
-17.6139
-17.1155
-16.6406
-16.1881
-15.7577
-15.3499
-14.9658
-14.6075
-14.2779
-13.9809
-13.7212
-13.5045
-13.3369
-13.225
-13.1751
-13.1917
-13.2758
-13.4203
-13.6045
-13.7873
-13.9072
-24.5517
-24.1435
-23.4862
-22.7272
-21.955
-21.2102
-20.5071
-19.8475
-19.2285
-18.6456
-18.0946
-17.5717
-17.074
-16.5995
-16.1466
-15.7149
-15.3047
-14.9169
-14.5538
-14.2181
-13.9141
-13.6467
-13.4222
-13.2478
-13.1313
-13.0811
-13.1046
-13.2062
-13.3827
-13.6147
-13.8544
-14.0192
-25.0478
-24.5188
-23.7196
-22.8474
-21.9988
-21.2074
-20.478
-19.8049
-19.18
-18.5954
-18.0448
-17.5232
-17.0268
-16.5529
-16.0998
-15.6667
-15.2538
-14.8619
-14.4931
-14.1504
-13.8381
-13.5615
-13.3275
-13.1442
-13.0211
-12.9687
-12.9979
-13.1179
-13.3312
-13.6228
-13.9402
-14.1722
-25.6761
-24.9616
-23.9712
-22.9616
-22.0282
-21.1891
-20.4348
-19.7503
-19.1213
-18.5367
-17.9878
-17.4684
-16.9739
-16.5011
-16.048
-15.6135
-15.1976
-14.8011
-14.4259
-14.0751
-13.7531
-13.4656
-13.22
-13.0255
-12.8931
-12.8358
-12.8684
-13.0061
-13.2599
-13.6243
-14.0471
-14.3829
-26.4831
-25.4734
-24.2277
-23.0567
-22.0342
-21.1495
-20.3742
-19.6817
-19.0516
-18.4691
-17.9235
-17.4074
-16.9156
-16.4445
-15.9916
-15.5557
-15.1366
-14.7349
-14.3526
-13.9926
-13.6594
-13.3592
-13.0997
-12.8912
-12.7462
-12.6803
-12.7125
-12.8651
-13.1609
-13.6109
-14.1755
-14.6773
-27.5425
-26.0442
-24.4656
-23.1147
-22.0056
-21.0826
-20.2929
-19.5976
-18.97
-18.3922
-17.8518
-17.3404
-16.8522
-16.3832
-15.9309
-15.4937
-15.0712
-14.6639
-14.2736
-13.9034
-13.5575
-13.2425
-12.9665
-12.7409
-12.5795
-12.5002
-12.5263
-12.6881
-13.0231
-13.5686
-14.3191
-15.0968
-28.9764
-26.6351
-24.6465
-23.1122
-21.9306
-20.9824
-20.188
-19.4965
-18.8761
-18.306
-17.7728
-17.2676
-16.784
-16.3178
-15.8664
-15.428
-15.002
-14.5887
-14.1897
-13.808
-13.4479
-13.116
-12.8208
-12.5745
-12.3921
-12.2936
-12.3062
-12.4676
-12.8324
-13.4747
-14.4557
-15.7107
-30.9957
-27.1377
-24.7139
-23.0216
-21.7972
-20.8438
-20.0573
-19.3777
-18.7695
-18.2106
-17.6869
-17.1893
-16.7114
-16.2487
-15.7988
-15.3592
-14.9296
-14.5099
-14.1015
-13.7073
-13.3312
-12.9804
-12.6628
-12.3922
-12.1838
-12.0593
-12.0488
-12.1964
-12.5724
-13.2963
-14.5239
-16.6386
-33.9795
-27.2818
-24.5985
-22.814
-21.596
-20.6636
-19.8999
-19.2411
-18.6505
-18.1064
-17.5944
-17.1062
-16.635
-16.1765
-15.7285
-15.2879
-14.8548
-14.4283
-14.0096
-13.6021
-13.2083
-12.8365
-12.493
-12.1943
-11.9545
-11.7963
-11.7519
-11.8678
-12.2252
-12.9917
-14.3701
-18.0946
-38.6378
-26.4223
-24.2583
-22.4649
-21.3234
-20.4411
-19.7163
-19.0874
-18.52
-17.9942
-17.4959
-17.0189
-16.5554
-16.1016
-15.6564
-15.2148
-14.7782
-14.3448
-13.9151
-13.4934
-13.0798
-12.6854
-12.3121
-11.9817
-11.7046
-11.5049
-11.4146
-11.4787
-11.7754
-12.534
-13.6298
-20.4808
)
;

boundaryField
{
    left
    {
        type            calculated;
        value           nonuniform List<scalar> 
16
(
-23.1501
-23.1931
-23.2805
-23.415
-23.6011
-23.8455
-24.1577
-24.5517
-25.0478
-25.6761
-26.4831
-27.5425
-28.9764
-30.9957
-33.9795
-38.6378
)
;
    }
    right
    {
        type            calculated;
        value           nonuniform List<scalar> 
16
(
-13.6663
-13.6751
-13.6934
-13.7227
-13.7654
-13.8252
-13.9072
-14.0192
-14.1722
-14.3829
-14.6773
-15.0968
-15.7107
-16.6386
-18.0946
-20.4808
)
;
    }
    interface
    {
        type            calculated;
        value           nonuniform List<scalar> 
32
(
-41.5017
-25.6284
-24.0306
-22.2523
-21.1692
-20.3195
-19.6182
-19.0064
-18.452
-17.9362
-17.4453
-16.9742
-16.515
-16.0636
-15.62
-15.1779
-14.7397
-14.3027
-13.8672
-13.4383
-13.0143
-12.6083
-12.2189
-11.8718
-11.5747
-11.3521
-11.2361
-11.269
-11.5234
-12.2656
-13.049
-21.9724
)
;
    }
    bottom
    {
        type            calculated;
        value           nonuniform List<scalar> 
32
(
-23.1394
-22.9686
-22.6474
-22.2095
-21.6914
-21.1262
-20.5396
-19.95
-19.3694
-18.8051
-18.2613
-17.7398
-17.2417
-16.7673
-16.317
-15.8913
-15.4913
-15.1183
-14.7744
-14.4623
-14.1851
-13.9462
-13.7493
-13.5973
-13.4925
-13.4353
-13.4231
-13.4496
-13.5037
-13.5697
-13.629
-13.6641
)
;
    }
    defaultFaces
    {
        type            empty;
    }
}


// ************************************************************************* //
