/*--------------------------------*- C++ -*----------------------------------*\
| =========                 |                                                 |
| \\      /  F ield         | OpenFOAM: The Open Source CFD Toolbox           |
|  \\    /   O peration     | Version:  2112                                  |
|   \\  /    A nd           | Website:  www.openfoam.com                      |
|    \\/     M anipulation  |                                                 |
\*---------------------------------------------------------------------------*/
FoamFile
{
    version     2.0;
    format      ascii;
    arch        "LSB;label=32;scalar=64";
    class       volScalarField;
    location    "9";
    object      gradTx;
}
// * * * * * * * * * * * * * * * * * * * * * * * * * * * * * * * * * * * * * //

dimensions      [0 -1 0 1 0 0 0];

internalField   nonuniform List<scalar> 
512
(
0.0213573
0.0614994
0.094885
0.119496
0.135407
0.14398
0.147029
0.146277
0.143107
0.138517
0.133164
0.127444
0.121561
0.115585
0.109497
0.10322
0.0966361
0.089609
0.0819955
0.0736623
0.0645059
0.0544775
0.0436163
0.0320916
0.0202529
0.00867965
-0.00178771
-0.010074
-0.0150123
-0.0156631
-0.0118007
-0.00438751
0.0647148
0.186187
0.286848
0.360664
0.408056
0.43332
0.442039
0.439436
0.429676
0.41574
0.399584
0.382374
0.364706
0.346783
0.328541
0.309737
0.29002
0.268975
0.246168
0.221195
0.193738
0.163644
0.131018
0.0963568
0.0606961
0.0257662
-0.00590494
-0.0310559
-0.0461065
-0.0481165
-0.0362901
-0.0135033
0.110061
0.316078
0.485523
0.608438
0.686236
0.726797
0.739878
0.734385
0.71729
0.69352
0.666269
0.637419
0.607917
0.578064
0.547727
0.516486
0.483741
0.448787
0.410888
0.369355
0.323638
0.273451
0.218938
0.160882
0.100967
0.0420485
-0.0116424
-0.0545546
-0.080455
-0.0840263
-0.0635221
-0.0236771
0.158932
0.455112
0.69583
0.86749
0.973727
1.02714
1.04236
1.03223
1.00657
0.97217
0.933354
0.89263
0.851219
0.809469
0.767143
0.723617
0.678021
0.629343
0.576527
0.518573
0.454668
0.384355
0.307759
0.225889
0.141007
0.0570411
-0.0200592
-0.0822942
-0.120378
-0.125951
-0.0955975
-0.0357377
0.213221
0.60801
0.923402
1.1429
1.27442
1.33704
1.35118
1.33397
1.29804
1.25193
1.20092
1.14802
1.09461
1.04102
0.986866
0.931274
0.873081
0.810946
0.743463
0.669294
0.587318
0.49685
0.397921
0.291673
0.180841
0.07034
-0.0321726
-0.116057
-0.16842
-0.176851
-0.135061
-0.050717
0.275422
0.780758
1.17495
1.4403
1.59234
1.65906
1.66783
1.64038
1.59206
1.5329
1.46896
1.40353
1.33805
1.27273
1.20696
1.13959
1.06914
0.993899
0.912088
0.821986
0.722113
0.611483
0.48994
0.35863
0.22062
0.0816683
-0.0489206
-0.157685
-0.22744
-0.2403
-0.185174
-0.0699861
0.348998
0.981292
1.45871
1.76602
1.9316
1.99556
1.99354
1.95201
1.8888
1.81508
1.73738
1.65906
1.58146
1.50455
1.42745
1.34869
1.26641
1.17851
1.0828
0.977142
0.859623
0.728873
0.58443
0.427295
0.260666
0.0909347
-0.0711006
-0.209049
-0.300679
-0.320736
-0.250308
-0.0954669
0.438996
1.22055
1.78499
2.12717
2.29625
2.34857
2.32913
2.26906
2.18816
2.09826
2.00595
1.91442
1.8247
1.73643
1.64838
1.55868
1.46509
1.36509
1.25603
1.13529
1.00047
0.849715
0.682127
0.498366
0.301521
0.0983075
-0.0992775
-0.271977
-0.391809
-0.423777
-0.336539
-0.129981
0.5531
1.51408
2.16685
2.5316
2.69011
2.7195
2.67488
2.59132
2.48976
2.38204
2.27434
2.16933
2.06758
1.96827
1.86972
1.76966
1.6654
1.55396
1.4322
1.29697
1.14532
0.9748
0.783902
0.572745
0.344004
0.104305
-0.13365
-0.348103
-0.504902
-0.556594
-0.452574
-0.17785
0.703504
1.88466
2.62071
2.98758
3.11624
3.10895
3.03037
2.91808
2.79291
2.66583
2.54205
2.42343
2.30985
2.19992
2.09145
1.9817
1.86752
1.74543
1.61177
1.4628
1.29493
1.10501
0.890781
0.651562
0.389267
0.109903
-0.173866
-0.43862
-0.64426
-0.728293
-0.611238
-0.245962
0.910364
2.36652
3.16687
3.50311
3.57636
3.51622
3.39428
3.24806
3.09655
2.94879
2.80847
2.67629
2.55123
2.43122
2.31352
2.19487
2.07163
1.93981
1.79518
1.63338
1.45009
1.24135
1.00395
0.736196
0.438845
0.116645
-0.218794
-0.543879
-0.813994
-0.950185
-0.831892
-0.345737
1.20836
3.01233
3.82906
4.08437
4.06983
3.93893
3.76426
3.57937
3.39924
3.2299
3.07286
2.92736
2.79135
2.66195
2.53583
2.40921
2.27791
2.13743
1.98292
1.80936
1.61166
1.3849
1.12477
0.828288
0.494695
0.126756
-0.266253
-0.662822
-1.01716
-1.23558
-1.14444
-0.496863
1.65951
3.90496
4.63162
4.73309
4.59239
4.37259
4.1368
3.90948
3.69924
3.50793
3.33437
3.17607
3.02982
2.89187
2.75829
2.62473
2.48651
2.33858
2.17546
1.99143
1.78053
1.53685
1.25474
0.929729
0.559205
0.143207
-0.312746
-0.792241
-1.25423
-1.59821
-1.59603
-0.734592
2.37905
5.17729
5.59047
5.44235
5.13473
4.81024
4.50723
4.23533
3.9945
3.78152
3.59208
3.42178
3.26622
3.12071
2.98075
2.84144
2.69756
2.54356
2.37326
2.18026
1.95766
1.69846
1.39552
1.04262
0.635159
0.169723
-0.353268
-0.92594
-1.52071
-2.04723
-2.26244
-1.12437
3.58852
7.04587
6.68967
6.19148
5.68127
5.24251
4.86987
4.55341
4.2828
4.04923
3.845
3.66381
3.50011
3.34818
3.20305
3.05932
2.91115
2.75265
2.57676
2.37654
2.14398
1.87107
1.54884
1.16922
0.725677
0.210697
-0.381289
-1.05402
-1.80418
-2.57395
-3.26718
-1.79194
5.7279
9.86783
7.82437
6.9436
6.20996
5.65826
5.21848
4.86002
4.56184
4.30961
4.09217
3.90146
3.73108
3.57396
3.42503
3.27832
3.12736
2.96612
2.78639
2.58095
2.34046
2.05608
1.71659
1.31191
0.834151
0.271027
-0.389001
-1.1626
-2.08266
-3.1197
-4.8139
-2.98663
)
;

boundaryField
{
    left
    {
        type            calculated;
        value           uniform 0;
    }
    right
    {
        type            calculated;
        value           uniform 0;
    }
    interface
    {
        type            calculated;
        value           nonuniform List<scalar> 
32
(
5.7279
9.86783
7.82437
6.9436
6.20996
5.65826
5.21848
4.86002
4.56184
4.30961
4.09217
3.90146
3.73108
3.57396
3.42503
3.27832
3.12736
2.96612
2.78639
2.58095
2.34046
2.05608
1.71659
1.31191
0.834151
0.271027
-0.389001
-1.1626
-2.08266
-3.1197
-4.8139
-2.98663
)
;
    }
    bottom
    {
        type            calculated;
        value           nonuniform List<scalar> 
32
(
0.0213573
0.0614994
0.094885
0.119496
0.135407
0.14398
0.147029
0.146277
0.143107
0.138517
0.133164
0.127444
0.121561
0.115585
0.109497
0.10322
0.0966361
0.089609
0.0819955
0.0736623
0.0645059
0.0544775
0.0436163
0.0320916
0.0202529
0.00867965
-0.00178771
-0.010074
-0.0150123
-0.0156631
-0.0118007
-0.00438751
)
;
    }
    defaultFaces
    {
        type            empty;
    }
}


// ************************************************************************* //
