/*--------------------------------*- C++ -*----------------------------------*\
| =========                 |                                                 |
| \\      /  F ield         | OpenFOAM: The Open Source CFD Toolbox           |
|  \\    /   O peration     | Version:  2112                                  |
|   \\  /    A nd           | Website:  www.openfoam.com                      |
|    \\/     M anipulation  |                                                 |
\*---------------------------------------------------------------------------*/
FoamFile
{
    version     2.0;
    format      ascii;
    arch        "LSB;label=32;scalar=64";
    class       volScalarField;
    location    "9";
    object      T;
}
// * * * * * * * * * * * * * * * * * * * * * * * * * * * * * * * * * * * * * //

dimensions      [0 0 0 1 0 0 0];

internalField   nonuniform List<scalar> 
512
(
309.819
309.821
309.823
309.826
309.831
309.835
309.84
309.844
309.849
309.853
309.857
309.861
309.865
309.869
309.873
309.876
309.879
309.882
309.885
309.887
309.889
309.891
309.893
309.894
309.895
309.895
309.895
309.895
309.895
309.894
309.894
309.893
309.457
309.461
309.469
309.479
309.492
309.505
309.519
309.532
309.546
309.559
309.572
309.584
309.596
309.607
309.618
309.628
309.637
309.646
309.654
309.661
309.668
309.673
309.678
309.681
309.684
309.685
309.685
309.685
309.684
309.682
309.681
309.68
309.094
309.101
309.114
309.132
309.152
309.175
309.198
309.221
309.244
309.266
309.287
309.307
309.327
309.345
309.363
309.379
309.395
309.41
309.423
309.435
309.446
309.456
309.463
309.469
309.473
309.476
309.476
309.475
309.473
309.47
309.467
309.466
308.73
308.74
308.758
308.783
308.812
308.844
308.877
308.909
308.941
308.972
309.002
309.03
309.058
309.084
309.108
309.132
309.154
309.174
309.193
309.21
309.225
309.238
309.249
309.258
309.263
309.267
309.267
309.265
309.262
309.258
309.254
309.252
308.363
308.376
308.401
308.434
308.472
308.513
308.556
308.598
308.639
308.679
308.717
308.754
308.789
308.822
308.854
308.884
308.912
308.939
308.963
308.985
309.005
309.022
309.036
309.047
309.054
309.058
309.059
309.056
309.051
309.045
309.04
309.037
307.992
308.009
308.041
308.083
308.131
308.182
308.235
308.287
308.337
308.386
308.433
308.478
308.521
308.562
308.6
308.637
308.672
308.704
308.734
308.761
308.785
308.806
308.823
308.837
308.846
308.85
308.851
308.847
308.841
308.833
308.826
308.822
307.618
307.639
307.679
307.731
307.789
307.851
307.914
307.976
308.036
308.094
308.149
308.202
308.253
308.301
308.347
308.391
308.431
308.47
308.505
308.537
308.566
308.591
308.612
308.628
308.638
308.644
308.644
308.639
308.631
308.621
308.611
308.605
307.237
307.265
307.314
307.376
307.447
307.52
307.593
307.665
307.735
307.802
307.866
307.928
307.986
308.042
308.095
308.145
308.192
308.236
308.277
308.315
308.348
308.377
308.401
308.42
308.432
308.439
308.439
308.432
308.422
308.408
308.395
308.387
306.85
306.885
306.945
307.02
307.103
307.188
307.273
307.356
307.435
307.511
307.584
307.653
307.72
307.783
307.843
307.899
307.953
308.004
308.05
308.093
308.131
308.165
308.192
308.214
308.228
308.235
308.235
308.227
308.213
308.195
308.178
308.167
306.455
306.499
306.572
306.662
306.759
306.857
306.953
307.047
307.136
307.221
307.302
307.38
307.454
307.524
307.591
307.655
307.715
307.772
307.824
307.873
307.916
307.953
307.985
308.009
308.026
308.033
308.032
308.023
308.005
307.982
307.959
307.944
306.048
306.105
306.196
306.303
306.415
306.526
306.635
306.738
306.838
306.932
307.022
307.107
307.189
307.267
307.341
307.412
307.478
307.541
307.599
307.653
307.702
307.744
307.779
307.807
307.825
307.834
307.832
307.82
307.798
307.769
307.739
307.717
305.627
305.703
305.815
305.942
306.071
306.196
306.317
306.431
306.54
306.644
306.742
306.836
306.925
307.01
307.092
307.169
307.242
307.311
307.376
307.435
307.489
307.536
307.575
307.606
307.627
307.637
307.635
307.621
307.594
307.557
307.516
307.485
305.187
305.291
305.431
305.58
305.727
305.867
306
306.126
306.245
306.357
306.464
306.566
306.662
306.755
306.843
306.927
307.007
307.083
307.153
307.219
307.278
307.33
307.374
307.408
307.432
307.443
307.441
307.424
307.391
307.345
307.292
307.246
304.722
304.87
305.045
305.22
305.385
305.541
305.686
305.822
305.951
306.072
306.187
306.296
306.401
306.501
306.596
306.687
306.773
306.855
306.932
307.004
307.069
307.126
307.175
307.213
307.24
307.253
307.251
307.231
307.193
307.136
307.065
306.994
304.219
304.443
304.659
304.861
305.046
305.216
305.374
305.52
305.658
305.788
305.911
306.028
306.14
306.247
306.35
306.447
306.541
306.629
306.713
306.79
306.861
306.924
306.978
307.021
307.051
307.066
307.064
307.043
306.999
306.93
306.838
306.726
303.66
304.018
304.276
304.507
304.71
304.895
305.064
305.221
305.368
305.506
305.637
305.762
305.881
305.995
306.104
306.209
306.309
306.405
306.495
306.579
306.656
306.725
306.784
306.832
306.866
306.884
306.883
306.86
306.811
306.73
306.616
306.429
)
;

boundaryField
{
    left
    {
        type            zeroGradient;
    }
    right
    {
        type            zeroGradient;
    }
    interface
    {
        type            fixedValue;
        value           nonuniform List<scalar> 
32
(
303.335
303.817
304.089
304.333
304.545
304.736
304.911
305.072
305.224
305.366
305.501
305.629
305.752
305.87
305.982
306.09
306.194
306.293
306.386
306.474
306.554
306.626
306.689
306.739
306.776
306.796
306.796
306.772
306.721
306.634
306.514
306.257
)
;
    }
    bottom
    {
        type            fixedValue;
        value           uniform 310;
    }
    defaultFaces
    {
        type            empty;
    }
}


// ************************************************************************* //
