/*--------------------------------*- C++ -*----------------------------------*\
| =========                 |                                                 |
| \\      /  F ield         | OpenFOAM: The Open Source CFD Toolbox           |
|  \\    /   O peration     | Version:  2112                                  |
|   \\  /    A nd           | Website:  www.openfoam.com                      |
|    \\/     M anipulation  |                                                 |
\*---------------------------------------------------------------------------*/
FoamFile
{
    version     2.0;
    format      ascii;
    arch        "LSB;label=32;scalar=64";
    class       volVectorField;
    location    "0.2";
    object      flux;
}
// * * * * * * * * * * * * * * * * * * * * * * * * * * * * * * * * * * * * * //

dimensions      [0 1 -1 1 0 0 0];

internalField   nonuniform List<vector> 
1681
(
(2622.2765539 -17.2578723076 0)
(0.00719291195369 -17.2067138454 0)
(0.010569006543 -17.113624958 0)
(0.0122115082697 -16.994840748 0)
(0.0123459057973 -16.8688492478 0)
(0.0114441494 -16.7474293455 0)
(0.00988351101565 -16.6395774156 0)
(0.00808152730665 -16.5494703261 0)
(0.0063241006303 -16.4777437416 0)
(0.00477280714769 -16.4228513855 0)
(0.00349391085438 -16.3821984366 0)
(0.00249209606118 -16.3529167645 0)
(0.00173829518945 -16.3323217353 0)
(0.00118942073411 -16.3181299138 0)
(0.000800544470717 -16.3085209814 0)
(0.000531309861169 -16.3021119061 0)
(0.000348512743941 -16.2978907566 0)
(0.00022642874533 -16.2951394112 0)
(0.000146003795615 -16.293360953 0)
(9.36138739037e-05 -16.2922186673 0)
(5.97915729246e-05 -16.2914883133 0)
(3.81101737784e-05 -16.2910226384 0)
(2.42906222155e-05 -16.2907260008 0)
(1.55293843108e-05 -16.2905367647 0)
(1.00150353512e-05 -16.2904153782 0)
(6.59278169105e-06 -16.2903364443 0)
(4.53840886192e-06 -16.2902835126 0)
(3.41003621214e-06 -16.2902456732 0)
(2.95373515186e-06 -16.2902153152 0)
(3.04628907236e-06 -16.2901866087 0)
(3.66437650497e-06 -16.2901544082 0)
(4.87630758226e-06 -16.2901133524 0)
(6.87149230596e-06 -16.2900569369 0)
(1.00986583522e-05 -16.2899760326 0)
(1.55363787721e-05 -16.2898551522 0)
(2.39802441056e-05 -16.2896652084 0)
(2.94301170275e-05 -16.2893731352 0)
(8.4871041674e-06 -16.2890686746 0)
(-6.33926853571e-06 -16.2892070228 0)
(-8.88217503276e-06 -16.2892115349 0)
(-2622.37069551 -16.2893828311 0)
(2618.83052888 -17.2495587873 0)
(0.021656557967 -17.1977409719 0)
(0.0318056129417 -17.1037519878 0)
(0.0367436337689 -16.983871011 0)
(0.0371363747048 -16.8567931073 0)
(0.0344102170463 -16.734490179 0)
(0.02970829286 -16.625965632 0)
(0.0242852074989 -16.5353766103 0)
(0.0189996874827 -16.4633204107 0)
(0.0143362538419 -16.4082109164 0)
(0.0104930133412 -16.3674192476 0)
(0.00748324420582 -16.3380512854 0)
(0.00521907496624 -16.3174038694 0)
(0.00357073004908 -16.3031809608 0)
(0.00240305705794 -16.2935539756 0)
(0.00159473508737 -16.2871346272 0)
(0.00104598624135 -16.2829077384 0)
(0.000679531990622 -16.2801532361 0)
(0.000438144982609 -16.278373061 0)
(0.000280914058199 -16.2772298467 0)
(0.00017941419891 -16.2764989894 0)
(0.000114352324768 -16.2760330388 0)
(7.28841236588e-05 -16.2757362475 0)
(4.6595136197e-05 -16.2755469241 0)
(3.00490390624e-05 -16.2754254878 0)
(1.97803446107e-05 -16.2753465268 0)
(1.36158163317e-05 -16.2752935832 0)
(1.02294364005e-05 -16.2752557445 0)
(8.85917269802e-06 -16.2752253997 0)
(9.1351167309e-06 -16.2751967209 0)
(1.09868755941e-05 -16.2751645678 0)
(1.46179448857e-05 -16.2751235895 0)
(2.05924715525e-05 -16.2750673125 0)
(3.0258281327e-05 -16.2749866927 0)
(4.66284501253e-05 -16.2748662554 0)
(7.24231561398e-05 -16.2746756473 0)
(8.98766484601e-05 -16.2743758231 0)
(2.4735379557e-05 -16.274050424 0)
(-2.22327937707e-05 -16.2742226341 0)
(-2.62794925507e-05 -16.274252755 0)
(-2619.11358571 -16.2743942465 0)
(2615.38709395 -17.2330126413 0)
(0.0363542718584 -17.1799227333 0)
(0.053342998717 -17.0840691428 0)
(0.0616032843654 -16.9619796151 0)
(0.0622220721969 -16.8327355358 0)
(0.0576096444691 -16.7086651896 0)
(0.0497062247614 -16.5987960749 0)
(0.04061057156 -16.5072447908 0)
(0.0317572393999 -16.4345311775 0)
(0.0239530397651 -16.3789889794 0)
(0.0175258370597 -16.3379211022 0)
(0.0124951717171 -16.3083814687 0)
(0.00871236010757 -16.287629923 0)
(0.00595939949455 -16.2733452831 0)
(0.00400981119455 -16.263682489 0)
(0.00266055728966 -16.2572427896 0)
(0.00174479097061 -16.253004548 0)
(0.00113336422845 -16.2502438119 0)
(0.000730681664865 -16.2484602532 0)
(0.000468428195265 -16.2473152129 0)
(0.000299153150436 -16.2465833681 0)
(0.000190658552038 -16.2461168779 0)
(0.000121513563778 -16.2458197864 0)
(7.76813231569e-05 -16.2456302929 0)
(5.00945099747e-05 -16.2455087597 0)
(3.29737027184e-05 -16.245429746 0)
(2.26948556812e-05 -16.2453767799 0)
(1.70467463499e-05 -16.2453389432 0)
(1.47584548634e-05 -16.245308625 0)
(1.52126537391e-05 -16.2452800022 0)
(1.82906558458e-05 -16.2452479441 0)
(2.43273828025e-05 -16.2452071196 0)
(3.42508653082e-05 -16.2451511061 0)
(5.03100677475e-05 -16.2450709944 0)
(7.77454528056e-05 -16.2449513617 0)
(0.00012206669927 -16.2447600824 0)
(0.000154474770229 -16.244449264 0)
(3.91249191648e-05 -16.2440919136 0)
(-4.68054642626e-05 -16.2443158642 0)
(-4.32046552916e-05 -16.2443865718 0)
(-2615.86096611 -16.2444900788 0)
(2611.9479418 -17.2084038458 0)
(0.0514452576718 -17.1534577217 0)
(0.0753942365887 -17.0547109331 0)
(0.087010355172 -16.9292767386 0)
(0.0877992597999 -16.7967871048 0)
(0.0811981092137 -16.6700626468 0)
(0.069992372625 -16.5581785847 0)
(0.0571381869841 -16.4651880537 0)
(0.0446508497523 -16.3914929003 0)
(0.0336582689099 -16.3353056462 0)
(0.0246145154872 -16.2938266159 0)
(0.0175414800437 -16.2640318289 0)
(0.0122263120881 -16.2431257722 0)
(0.00836021684336 -16.2287497041 0)
(0.00562355576326 -16.2190339889 0)
(0.00373032328376 -16.2125642885 0)
(0.00244578178425 -16.2083093603 0)
(0.00158839094833 -16.205539493 0)
(0.00102386478267 -16.2037509979 0)
(0.000656291092825 -16.2026033053 0)
(0.000419081193945 -16.2018700332 0)
(0.000267068655604 -16.2014027669 0)
(0.000170201117768 -16.2011052458 0)
(0.000108800475053 -16.2009155099 0)
(7.01584223943e-05 -16.2007938392 0)
(4.61763067745e-05 -16.2007147514 0)
(3.17763689777e-05 -16.2006617546 0)
(2.38604196564e-05 -16.2006239228 0)
(2.0647385866e-05 -16.2005936457 0)
(2.12712934927e-05 -16.2005651076 0)
(2.55633859689e-05 -16.2005331928 0)
(3.39855538728e-05 -16.2004925978 0)
(4.78175132442e-05 -16.2004369611 0)
(7.02071425082e-05 -16.200357525 0)
(0.000108810850468 -16.2002389782 0)
(0.000172842707812 -16.2000476265 0)
(0.000223510410242 -16.1997269323 0)
(5.14153346701e-05 -16.19933676 0)
(-8.11644270288e-05 -16.1996142429 0)
(-6.11224128562e-05 -16.1997260672 0)
(-2612.61581038 -16.1998017045 0)
(2608.51472163 -17.1759926655 0)
(0.0670928543991 -17.1185915862 0)
(0.098179195347 -17.015885927 0)
(0.113188050032 -16.8859384854 0)
(0.114064890546 -16.7491158387 0)
(0.105331348485 -16.6188473055 0)
(0.0906811433842 -16.5042806591 0)
(0.0739477084463 -16.4093792219 0)
(0.0577337209042 -16.3343841153 0)
(0.0434862966343 -16.2773444693 0)
(0.031780600519 -16.235323338 0)
(0.0226353404638 -16.2051929219 0)
(0.0157687850603 -16.1840841484 0)
(0.010777756148 -16.169588484 0)
(0.00724689432535 -16.1598037839 0)
(0.00480548301189 -16.1532951369 0)
(0.00314975007522 -16.1490186526 0)
(0.00204503670399 -16.146237058 0)
(0.00131791920322 -16.1444422662 0)
(0.000844621132333 -16.143291217 0)
(0.000539260817147 -16.1425561541 0)
(0.000343616034135 -16.1420879228 0)
(0.000218964981166 -16.1417898721 0)
(0.000139962643698 -16.1415998397 0)
(9.02462004933e-05 -16.1414780025 0)
(5.939063446e-05 -16.1413988263 0)
(4.08605738309e-05 -16.141345795 0)
(3.06685187436e-05 -16.141307974 0)
(2.6521501553e-05 -16.1412777544 0)
(2.7303234175e-05 -16.1412493311 0)
(3.27926137378e-05 -16.1412176088 0)
(4.35737123853e-05 -16.1411773195 0)
(6.12654266425e-05 -16.1411221719 0)
(8.99066661609e-05 -16.1410435696 0)
(0.000139725147735 -16.1409263792 0)
(0.000224475866301 -16.1407357116 0)
(0.000296648081773 -16.1404074599 0)
(6.16628068488e-05 -16.1399868131 0)
(-0.000124666907796 -16.1403143031 0)
(-8.06969797762e-05 -16.1404604247 0)
(-2609.38106055 -16.1405179281 0)
(2605.08902495 -17.1361208839 0)
(0.0834666053598 -17.075632329 0)
(0.121924856755 -16.9678626161 0)
(0.140364372834 -16.832193946 0)
(0.14121749577 -16.6899354692 0)
(0.130165145144 -16.5552288439 0)
(0.111885989343 -16.437315948 0)
(0.0911174957348 -16.3400392606 0)
(0.0710578002697 -16.2634335154 0)
(0.0534704243679 -16.2053408968 0)
(0.0390448249653 -16.1626520881 0)
(0.0277893179788 -16.1321096034 0)
(0.0193471996697 -16.1107528251 0)
(0.013216289743 -16.096111445 0)
(0.0088822251841 -16.0862431003 0)
(0.00588734953915 -16.0796875036 0)
(0.00385739757204 -16.0753852142 0)
(0.00250366822215 -16.0725896981 0)
(0.00161303298898 -16.0707875059 0)
(0.00103351350994 -16.0696325576 0)
(0.00065974002048 -16.0688954419 0)
(0.000420325069127 -16.0684261196 0)
(0.000267817747646 -16.0681274784 0)
(0.000171174395421 -16.0679371199 0)
(0.000110361090482 -16.0678151022 0)
(7.26177939711e-05 -16.0677358329 0)
(4.99468289827e-05 -16.0676827695 0)
(3.74685465203e-05 -16.0676449688 0)
(3.23759772028e-05 -16.0676148255 0)
(3.33004246309e-05 -16.0675865485 0)
(3.99656920842e-05 -16.067555069 0)
(5.30729315955e-05 -16.0675151629 0)
(7.4567508162e-05 -16.0674606179 0)
(0.000109365673089 -16.0673830107 0)
(0.000170382431435 -16.0672674533 0)
(0.000276626566858 -16.0670782661 0)
(0.000373290113406 -16.0667451567 0)
(7.00466983668e-05 -16.0662980107 0)
(-0.000175886746127 -16.066669555 0)
(-0.000101847409298 -16.0668406424 0)
(-2606.15961471 -16.066886969 0)
(2601.67237099 -17.0892105567 0)
(0.100744507953 -17.0249559978 0)
(0.14686687194 -16.9109669239 0)
(0.168773479408 -16.7683224719 0)
(0.169457910971 -16.6195039973 0)
(0.155855252733 -16.4794608232 0)
(0.133719060034 -16.3575436038 0)
(0.108724194973 -16.2574369168 0)
(0.0846733936763 -16.1789197831 0)
(0.0636425820844 -16.1195822251 0)
(0.0464268591976 -16.0761069794 0)
(0.0330151930699 -16.0450810918 0)
(0.0229684167318 -16.0234347024 0)
(0.0156797010948 -16.0086240664 0)
(0.0105316826176 -15.9986591812 0)
(0.00697706025006 -15.9920498123 0)
(0.00456931117958 -15.9877182447 0)
(0.00296457834633 -15.9849071143 0)
(0.00190934729248 -15.9830967375 0)
(0.00122303394438 -15.9819375488 0)
(0.000780548413752 -15.9811982436 0)
(0.000497208724965 -15.9807277825 0)
(0.000316764928381 -15.9804285383 0)
(0.000202437897743 -15.9802378539 0)
(0.000130503598509 -15.9801156603 0)
(8.58571728013e-05 -15.9800363048 0)
(5.90334040195e-05 -15.9799832189 0)
(4.42573194821e-05 -15.9799454527 0)
(3.82055442969e-05 -15.9799154075 0)
(3.92545162255e-05 -15.9798873106 0)
(4.70697369283e-05 -15.9798561255 0)
(6.24639421179e-05 -15.9798166811 0)
(8.7695862451e-05 -15.9797628549 0)
(0.000128539585969 -15.9796864109 0)
(0.000200674068877 -15.9795727754 0)
(0.000328935183133 -15.9793858759 0)
(0.000452699161401 -15.9790507058 0)
(7.6783156378e-05 -15.9785820003 0)
(-0.000233193238281 -15.9789905673 0)
(-0.000124179780572 -15.979177802 0)
(-2602.95431503 -15.97921763 0)
(2598.26619164 -17.0357644734 0)
(0.119115331919 -16.967009002 0)
(0.173251561941 -16.8455816475 0)
(0.198656958147 -16.6946524871 0)
(0.198989825507 -16.5381236951 0)
(0.182557223848 -16.391841239 0)
(0.156290770622 -16.2652693488 0)
(0.126842259876 -16.1618901641 0)
(0.0986287386078 -16.0811732927 0)
(0.0740329851181 -16.0204094644 0)
(0.0539450516318 -15.976037387 0)
(0.0383237733764 -15.9444630015 0)
(0.026638604761 -15.9224898798 0)
(0.0181713939726 -15.9074895812 0)
(0.012197076001 -15.8974173974 0)
(0.0080755368502 -15.8907488616 0)
(0.00528593717404 -15.8863854786 0)
(0.00342796965276 -15.8835576443 0)
(0.00220694607537 -15.8817386822 0)
(0.00141321229603 -15.8805751527 0)
(0.000901693284317 -15.8798336716 0)
(0.000574266124421 -15.8793621169 0)
(0.000365803461496 -15.8790623148 0)
(0.000233749996242 -15.8788713405 0)
(0.000150670910199 -15.8787489979 0)
(9.91060819951e-05 -15.878669577 0)
(6.8117255022e-05 -15.8786164869 0)
(5.10308232437e-05 -15.878578775 0)
(4.40044065222e-05 -15.8785488531 0)
(4.51568202771e-05 -15.878520972 0)
(5.40915898348e-05 -15.8784901345 0)
(7.17270587435e-05 -15.8784512317 0)
(0.000100621535206 -15.8783982435 0)
(0.00014738157671 -15.8783231388 0)
(0.000230489434501 -15.8782117294 0)
(0.000381040480332 -15.8780279288 0)
(0.000534065243859 -15.8776934654 0)
(8.20744029182e-05 -15.8772086788 0)
(-0.000295047084008 -15.8776469556 0)
(-0.00014725994607 -15.8778432775 0)
(-2599.76793563 -15.8778796915 0)
(2594.8718163 -16.9763665218 0)
(0.138781073127 -16.9023082981 0)
(0.201338174912 -16.7721450273 0)
(0.230265069883 -16.6115593866 0)
(0.230020160589 -16.4461400372 0)
(0.210426122007 -16.2927121276 0)
(0.17970927502 -16.1608456694 0)
(0.145543406177 -16.0537668172 0)
(0.112969533613 -15.9705770007 0)
(0.0846697632355 -15.9082184032 0)
(0.0616161517829 -15.8628491216 0)
(0.0437246945128 -15.8306685835 0)
(0.0303631007967 -15.8083369385 0)
(0.0206941975686 -15.7931302841 0)
(0.0138798265289 -15.7829425698 0)
(0.00918344400587 -15.7762111556 0)
(0.0060075546416 -15.7718145204 0)
(0.00389393764086 -15.7689696003 0)
(0.0025058456105 -15.7671421007 0)
(0.00160403605727 -15.7659744117 0)
(0.00102315558762 -15.7652309433 0)
(0.000651480080219 -15.7647584486 0)
(0.000414920194591 -15.7644582009 0)
(0.000265101277785 -15.7642670142 0)
(0.000170856311054 -15.7641445752 0)
(0.000112359384432 -15.7640651257 0)
(7.71937987781e-05 -15.76401206 0)
(5.77840666206e-05 -15.7639744287 0)
(4.9766146478e-05 -15.7639446595 0)
(5.09982401467e-05 -15.7639170326 0)
(6.1017787806e-05 -15.7638865975 0)
(8.08421420295e-05 -15.7638483179 0)
(0.00011331444081 -15.7637962899 0)
(0.000165842402286 -15.7637227086 0)
(0.000259716066761 -15.763613845 0)
(0.00043258797785 -15.7634339562 0)
(0.000616549173538 -15.7631028775 0)
(8.60851305513e-05 -15.7626077199 0)
(-0.000360112987856 -15.7630685621 0)
(-0.000170726964446 -15.7632688562 0)
(-2596.60317044 -15.7633038337 0)
(2591.49045668 -16.911681822 0)
(0.15995963082 -16.8314402318 0)
(0.231401344252 -16.6911482094 0)
(0.263857956164 -16.5194624043 0)
(0.26275927731 -16.3439395035 0)
(0.239616097421 -16.1824581725 0)
(0.204079832697 -16.0446710876 0)
(0.164895993617 -15.9334842633 0)
(0.127738421398 -15.8475664722 0)
(0.095578560926 -15.7834598175 0)
(0.069455015583 -15.7370047496 0)
(0.0492262100019 -15.7041691136 0)
(0.0341462646402 -15.6814533708 0)
(0.023250267721 -15.6660279845 0)
(0.0155809016983 -15.6557194366 0)
(0.0103011467274 -15.6489233785 0)
(0.00673424823144 -15.6444933233 0)
(0.00436245358475 -15.6416317497 0)
(0.00280598379995 -15.6397962758 0)
(0.00179544376892 -15.6386249307 0)
(0.00114488589948 -15.6378798641 0)
(0.000728814621141 -15.6374067069 0)
(0.000464090348584 -15.6371062021 0)
(0.000296475120089 -15.6369149279 0)
(0.000191048597001 -15.6367924748 0)
(0.000125609126739 -15.6367130521 0)
(8.62566712481e-05 -15.6366600509 0)
(6.45109274454e-05 -15.6366225336 0)
(5.54836271123e-05 -15.6365929512 0)
(5.67692234362e-05 -15.6365656199 0)
(6.78345177141e-05 -15.636535644 0)
(8.97885844494e-05 -15.6364980708 0)
(0.00012574339811 -15.6364471281 0)
(0.000183870537166 -15.6363752619 0)
(0.000288239907252 -15.6362692776 0)
(0.000483233994425 -15.6360941133 0)
(0.000699312506201 -15.6357689787 0)
(8.89374812688e-05 -15.635269167 0)
(-0.000427274328761 -15.63574582 0)
(-0.000194314266371 -15.6359466231 0)
(-2593.46262109 -15.635981329 0)
(2588.12319188 -16.8424568328 0)
(0.182887795644 -16.7550586188 0)
(0.26373374042 -16.6031317961 0)
(0.29970681107 -16.4188206756 0)
(0.29742100695 -16.2319465645 0)
(0.27027980518 -16.0615046342 0)
(0.229504056846 -15.9171888383 0)
(0.184964329257 -15.801508644 0)
(0.142974422786 -15.7126293777 0)
(0.106782107749 -15.6466391571 0)
(0.0774742925521 -15.5990233942 0)
(0.0548349702803 -15.5654937626 0)
(0.0379913266156 -15.5423754904 0)
(0.0258409844005 -15.5267239407 0)
(0.0173007477336 -15.5162926005 0)
(0.0114286666767 -15.5094323485 0)
(0.00746588039604 -15.5049701463 0)
(0.00483334713397 -15.5020932735 0)
(0.00310720940667 -15.5002509704 0)
(0.00198731838802 -15.4990768363 0)
(0.00126680035463 -15.4983307858 0)
(0.000806212488436 -15.4978573828 0)
(0.000513275996079 -15.4975568955 0)
(0.00032784674934 -15.4973657118 0)
(0.00021123147873 -15.4972433597 0)
(0.000138844161596 -15.4971640398 0)
(9.52974883323e-05 -15.4971111564 0)
(7.12039965663e-05 -15.4970737951 0)
(6.11488954378e-05 -15.4970444389 0)
(6.24596873539e-05 -15.4970174479 0)
(7.45275905674e-05 -15.4969879902 0)
(9.85453219908e-05 -15.4969512084 0)
(0.00013787623683 -15.4969014789 0)
(0.000201412498474 -15.4968315256 0)
(0.000315945781185 -15.496728765 0)
(0.00053264775979 -15.4965591346 0)
(0.000781538426043 -15.4962423717 0)
(9.07168734374e-05 -15.4957434674 0)
(-0.000495604193549 -15.4962296445 0)
(-0.000217828771605 -15.496428707 0)
(-2590.34878485 -15.4964636634 0)
(2584.77095359 -16.7695196879 0)
(0.207824638165 -16.6738824469 0)
(0.298648932891 -16.5086816826 0)
(0.338095002486 -16.3101286885 0)
(0.334222485602 -16.1106201303 0)
(0.302567642656 -15.9303148921 0)
(0.256079030733 -15.7788852483 0)
(0.205807885735 -15.6583537802 0)
(0.158712318783 -15.5663047507 0)
(0.118299757622 -15.4983160012 0)
(0.085684094466 -15.4494803075 0)
(0.0605557907795 -15.4152292363 0)
(0.0419002290255 -15.3916981123 0)
(0.0284668456914 -15.3758185614 0)
(0.0190392201488 -15.3652662415 0)
(0.0125656375634 -15.3583447364 0)
(0.0082020632204 -15.3538532756 0)
(0.00530628877562 -15.3509634882 0)
(0.00340927124366 -15.3491161498 0)
(0.00217948068017 -15.3479404981 0)
(0.0013887766093 -15.3471943284 0)
(0.000883592678719 -15.3467212506 0)
(0.000562424538141 -15.3464211507 0)
(0.000359182292879 -15.3462302945 0)
(0.000231382995319 -15.3461081952 0)
(0.000152049779335 -15.3460290772 0)
(0.00010430560774 -15.3459763793 0)
(7.78544266819e-05 -15.3459392252 0)
(6.6753073918e-05 -15.3459101404 0)
(6.80589593707e-05 -15.3458835384 0)
(8.1082411654e-05 -15.3458546603 0)
(0.000107090860289 -15.3458187565 0)
(0.000149679962564 -15.3457703703 0)
(0.000218413299885 -15.3457025329 0)
(0.0003427181092 -15.3456033478 0)
(0.000580512657284 -15.3454400528 0)
(0.000862445952276 -15.3451339513 0)
(9.14829229268e-05 -15.3446412497 0)
(-0.000564322258702 -15.3451311265 0)
(-0.000241118039784 -15.3453269869 0)
(-2587.26404261 -15.3453621772 0)
(2581.43451146 -16.6937810018 0)
(0.235055396704 -16.5886934237 0)
(0.336484492103 -16.4084242959 0)
(0.379319121521 -16.1939112377 0)
(0.373383766217 -15.9804496501 0)
(0.336626781589 -15.7893878005 0)
(0.283896279244 -15.6302880159 0)
(0.227480428772 -15.5045800364 0)
(0.174981978587 -15.4091821969 0)
(0.130146996388 -15.339103468 0)
(0.0940916455124 -15.2890063958 0)
(0.0663914093139 -15.254019368 0)
(0.0458734615962 -15.2300741827 0)
(0.0311273585614 -15.2139710556 0)
(0.0207955127327 -15.2033037766 0)
(0.0137112598663 -15.1963267295 0)
(0.00894213003679 -15.1918106885 0)
(0.00578077228879 -15.1889115104 0)
(0.00371180743213 -15.1870616458 0)
(0.00237168267585 -15.1858861925 0)
(0.00151064986434 -15.1851410428 0)
(0.000960848012977 -15.1846690306 0)
(0.000611467217384 -15.1843697923 0)
(0.000390437863841 -15.1841795649 0)
(0.000251474934476 -15.1840579105 0)
(0.000165207337239 -15.1839791186 0)
(0.000113267891928 -15.1839266898 0)
(8.44517714367e-05 -15.1838898042 0)
(7.22862596615e-05 -15.1838610428 0)
(7.35557137393e-05 -15.1838348825 0)
(8.74839603535e-05 -15.1838066481 0)
(0.000115403323483 -15.1837717107 0)
(0.000161120963124 -15.1837247998 0)
(0.00023481699238 -15.1836592843 0)
(0.000368441792976 -15.1835640299 0)
(0.000626527063822 -15.1834078587 0)
(0.000941299046262 -15.1831145682 0)
(9.12818329641e-05 -15.1826330293 0)
(-0.000632751626703 -15.1831211915 0)
(-0.000264038920473 -15.183312825 0)
(-2584.21064701 -15.1833477691 0)
(2578.1144587 -16.6162353804 0)
(0.264895979343 -16.5003334951 0)
(0.377605370078 -16.3030212763 0)
(0.423689931652 -16.0707179329 0)
(0.415127173046 -15.8419509793 0)
(0.3725999695 -15.6392549835 0)
(0.313040583557 -15.4719645148 0)
(0.250029049529 -15.3407932371 0)
(0.191807632473 -15.2419011621 0)
(0.142334917849 -15.16966768 0)
(0.102700914467 -15.1182877966 0)
(0.0723422333896 -15.0825647567 0)
(0.0499098914911 -15.0582144504 0)
(0.0338209269217 -15.0418991205 0)
(0.0225680853706 -15.0311275546 0)
(0.0148642551777 -15.024103728 0)
(0.00968510703594 -15.019569751 0)
(0.00625609732486 -15.0166659523 0)
(0.00401433482362 -15.0148168508 0)
(0.00256360127227 -15.0136437959 0)
(0.00163220899315 -15.0129011039 0)
(0.00103784278109 -15.0124310811 0)
(0.000660317671199 -15.0121332915 0)
(0.000421558659205 -15.0119440644 0)
(0.000271472272044 -15.0118230903 0)
(0.000178293906532 -15.011744776 0)
(0.000122168475626 -15.0116927174 0)
(9.09838339258e-05 -15.0116561727 0)
(7.77374214428e-05 -15.0116277937 0)
(7.89379039755e-05 -15.0116021325 0)
(9.37167618187e-05 -15.0115746088 0)
(0.000123460525941 -15.0115407279 0)
(0.000172165254233 -15.0114954252 0)
(0.000250567263837 -15.011432439 0)
(0.000393003217623 -15.0113414698 0)
(0.000670405000082 -15.0111931913 0)
(0.00101741183501 -15.0109147216 0)
(9.0158267868e-05 -15.0104489314 0)
(-0.000700281383845 -15.0109303021 0)
(-0.000286433553632 -15.0111168557 0)
(-2581.1907105 -15.0111506754 0)
(2574.81119768 -16.5379638623 0)
(0.297698217527 -16.4097023896 0)
(0.422407604555 -16.193163567 0)
(0.471533180915 -15.9411172581 0)
(0.459676356089 -15.6956620761 0)
(0.410624074494 -15.480478145 0)
(0.343588628525 -15.304520186 0)
(0.273493099301 -15.1676436894 0)
(0.209207090013 -15.0651503014 0)
(0.15486966949 -14.990727322 0)
(0.111512230175 -14.9380655386 0)
(0.07840607856 -14.9016224818 0)
(0.0540065888336 -14.8768872078 0)
(0.0365447377165 -14.8603786939 0)
(0.0243545912321 -14.8495186121 0)
(0.016022820581 -14.8424601003 0)
(0.0104296851739 -14.83791697 0)
(0.00673135233741 -14.8350146719 0)
(0.00431623870541 -14.8331704663 0)
(0.00275483205104 -14.8320025313 0)
(0.0017531928212 -14.8312640555 0)
(0.00111441048939 -14.8307971431 0)
(0.000708870555163 -14.8305015107 0)
(0.000452478108894 -14.8303137302 0)
(0.000291332631744 -14.8301937186 0)
(0.000191281916184 -14.8301160627 0)
(0.000130988539572 -14.830064494 0)
(9.74365150987e-05 -14.8300283746 0)
(8.30942962649e-05 -14.8300004448 0)
(8.41927030908e-05 -14.8299753452 0)
(9.97648839338e-05 -14.8299486021 0)
(0.000131240034901 -14.8299158695 0)
(0.00018277875377 -14.8298723084 0)
(0.000265608068559 -14.829812058 0)
(0.000416291323825 -14.8297257233 0)
(0.000711876697834 -14.8295860805 0)
(0.00109015102667 -14.8293243026 0)
(8.81657455827e-05 -14.8288784579 0)
(-0.00076633647837 -14.8293482176 0)
(-0.00030811358889 -14.8295288244 0)
(-2578.20619351 -14.8295603088 0)
(2571.52492545 -16.4601375398 0)
(0.333856038401 -16.3177551921 0)
(0.471322396378 -16.079564824 0)
(0.523190229829 -15.8056901491 0)
(0.507254995671 -15.5421385589 0)
(0.450828347528 -15.3136464321 0)
(0.375607474674 -15.1285970481 0)
(0.297903026444 -14.9858253258 0)
(0.227190905939 -14.8796669531 0)
(0.16775187041 -14.8030532859 0)
(0.120521882516 -14.7491352733 0)
(0.0845778995522 -14.712005877 0)
(0.0581586490743 -14.6869180831 0)
(0.0392946460624 -14.6702437511 0)
(0.026151804083 -14.6593164681 0)
(0.0171845835926 -14.6522389739 0)
(0.0111741927115 -14.6476977794 0)
(0.00720539807777 -14.6448045554 0)
(0.00461676296071 -14.6429702813 0)
(0.00294488341859 -14.6418107446 0)
(0.00187328662672 -14.6410785856 0)
(0.00119035175126 -14.6406161142 0)
(0.000757000244899 -14.6403234763 0)
(0.000483117069809 -14.6401376686 0)
(0.00031100577883 -14.6400189514 0)
(0.000204138839493 -14.639942166 0)
(0.000139706093352 -14.6398912266 0)
(0.000103793668247 -14.6398556298 0)
(8.83432942274e-05 -14.6398282243 0)
(8.93064364557e-05 -14.6398037543 0)
(0.000105611912739 -14.6397778652 0)
(0.000138719261989 -14.639746374 0)
(0.000192927555473 -14.6397046877 0)
(0.000279884282506 -14.6396473767 0)
(0.00043819871815 -14.6395660163 0)
(0.000750689158758 -14.6394357194 0)
(0.00115893635239 -14.6391923662 0)
(8.53752610936e-05 -14.6387702756 0)
(-0.000830354681619 -14.6392237841 0)
(-0.000328851801256 -14.6393974419 0)
(-2575.25889267 -14.6394251133 0)
(2568.25561914 -16.3840226298 0)
(0.373812760701 -16.2254999084 0)
(0.524820613153 -15.9629539905 0)
(0.579018433927 -15.6650230209 0)
(0.558085099492 -15.3819491313 0)
(0.493332376659 -15.1393738686 0)
(0.409152849768 -14.9448723232 0)
(0.323279118289 -14.7960749486 0)
(0.245761497992 -14.6862366849 0)
(0.180976005457 -14.6074683607 0)
(0.129721711974 -14.5523470316 0)
(0.0908495165983 -14.5145843129 0)
(0.0623590140011 -14.4891898291 0)
(0.0420650607236 -14.4723860899 0)
(0.0279555466771 -14.4614189013 0)
(0.0183465583142 -14.4543420035 0)
(0.0119165688651 -14.4498163013 0)
(0.00767685195609 -14.4469412718 0)
(0.00491500086228 -14.4451229236 0)
(0.00313317119271 -14.443975653 0)
(0.0019921189195 -14.443252272 0)
(0.0012654323478 -14.4427957931 0)
(0.000804559665872 -14.442507123 0)
(0.000513383089874 -14.4423238981 0)
(0.000330433154099 -14.4422068595 0)
(0.00021682688342 -14.4421311897 0)
(0.000148295780855 -14.4420810401 0)
(0.000110036961589 -14.4420460767 0)
(9.34693973256e-05 -14.4420192797 0)
(9.42645242689e-05 -14.4419955128 0)
(0.000111240938934 -14.4419705548 0)
(0.000145875542279 -14.4419403996 0)
(0.000202578224825 -14.44190072 0)
(0.000293342349614 -14.441846547 0)
(0.000458622777644 -14.4417704868 0)
(0.000786606722491 -14.4416502069 0)
(0.0012232397803 -14.4414268743 0)
(8.18821520612e-05 -14.4410319687 0)
(-0.000891769738395 -14.4414646938 0)
(-0.000348379430364 -14.4416301938 0)
(-2572.350429 -14.4416523751 0)
(2565.00302095 -16.3109873125 0)
(0.418069766252 -16.1339949333 0)
(0.583417773868 -15.8440668257 0)
(0.639391201669 -15.5197001584 0)
(0.612384826129 -15.2156708712 0)
(0.538243709143 -14.9582968569 0)
(0.444267258669 -14.7540571572 0)
(0.349630154101 -14.5991715316 0)
(0.264912223532 -14.4856928542 0)
(0.194529801076 -14.4048469009 0)
(0.139098692067 -14.348604931 0)
(0.0972093400487 -14.3102829112 0)
(0.0665982936749 -14.2846420281 0)
(0.0448488316173 -14.2677550208 0)
(0.0297606213591 -14.2567816253 0)
(0.0195051035969 -14.2497290328 0)
(0.0126543390617 -14.2452349961 0)
(0.00814407362061 -14.2423889149 0)
(0.00520988671403 -14.2405934952 0)
(0.00331901374417 -14.2394629763 0)
(0.0021092586101 -14.2387512118 0)
(0.00133938154079 -14.2383025077 0)
(0.000851379248923 -14.2380189202 0)
(0.000543169769569 -14.2378389757 0)
(0.000349547458941 -14.2377240546 0)
(0.000229302721786 -14.2376497799 0)
(0.000156728692582 -14.2376006027 0)
(0.000116145756626 -14.2375663977 0)
(9.84560725141e-05 -14.2375403026 0)
(9.90514170172e-05 -14.2375173187 0)
(0.000116634551199 -14.2374933724 0)
(0.000152686216833 -14.2374646494 0)
(0.000211698079817 -14.2374271066 0)
(0.000305930925023 -14.2373762631 0)
(0.000477466733568 -14.2373058109 0)
(0.000819411655542 -14.2371961734 0)
(0.0012825840017 -14.2369943207 0)
(7.78113539429e-05 -14.2366296696 0)
(-0.00094999970448 -14.2370371253 0)
(-0.000366388048741 -14.2371930187 0)
(-2569.48223615 -14.2372079 0)
(2561.76662269 -16.2425107175 0)
(0.467196858059 -16.0443462846 0)
(0.647679568118 -15.7236361009 0)
(0.704697624827 -15.3702953608 0)
(0.670365759799 -15.0438843708 0)
(0.585655119448 -14.7710717338 0)
(0.480977914822 -14.5568953918 0)
(0.37695197889 -14.3959355156 0)
(0.284626424148 -14.2789161021 0)
(0.2083935901 -14.1961143819 0)
(0.148634509907 -14.1388667354 0)
(0.103642097173 -14.1000820855 0)
(0.0708645920896 -14.0742706069 0)
(0.0476371412894 -14.0573568546 0)
(0.0315607442724 -14.0464177515 0)
(0.020655884148 -14.0394175377 0)
(0.013384592436 -14.0349740913 0)
(0.00860515213132 -14.0321694217 0)
(0.00550018859349 -14.0304049836 0)
(0.00350162788279 -14.0292963429 0)
(0.00222421262222 -14.0285994242 0)
(0.00141189066143 -14.0281605155 0)
(0.000897266082258 -14.0278832716 0)
(0.000572356215877 -14.0277073954 0)
(0.000368272311956 -14.0275950872 0)
(0.000241517266846 -14.0275225228 0)
(0.000164972218208 -14.0274745233 0)
(0.000122096989076 -14.0274412167 0)
(0.000103285189967 -14.0274159267 0)
(0.000103650546209 -14.0273938123 0)
(0.000121774812313 -14.0273709625 0)
(0.000159128706235 -14.0273437688 0)
(0.000220255470895 -14.0273084906 0)
(0.000317601489843 -14.0272611591 0)
(0.000494640719882 -14.0271966005 0)
(0.000848904759346 -14.0270981789 0)
(0.00133654055058 -14.0269191289 0)
(7.33212426711e-05 -14.0265874601 0)
(-0.00100443957335 -14.0269651546 0)
(-0.000382534382439 -14.027109749 0)
(-2566.65554881 -14.0271154513 0)
(2558.54564954 -16.1801945176 0)
(0.52184468957 -15.9577043994 0)
(0.718227958642 -15.6023801004 0)
(0.775341547691 -15.2173627163 0)
(0.732229551514 -14.8671687161 0)
(0.635641504948 -14.5783723581 0)
(0.519294502315 -14.3541623313 0)
(0.405226012041 -14.1872280123 0)
(0.304876450264 -14.0668336794 0)
(0.222539674408 -13.9822467305 0)
(0.158305151351 -13.9241431493 0)
(0.110128565748 -13.8850167883 0)
(0.0751433398501 -13.859127036 0)
(0.050419402692 -13.8422540605 0)
(0.0333484847561 -13.8313969129 0)
(0.0217938356381 -13.8244817232 0)
(0.0141039622504 -13.8201106586 0)
(0.00905789517879 -13.8173616353 0)
(0.00578450247536 -13.815637315 0)
(0.00368012562221 -13.8145563382 0)
(0.00233642408854 -13.8138778943 0)
(0.00148261206242 -13.8134510452 0)
(0.000942003268341 -13.8131815552 0)
(0.000600806640803 -13.8130106279 0)
(0.000386521982677 -13.8129014857 0)
(0.0002534154919 -13.8128309834 0)
(0.000172989911777 -13.8127843905 0)
(0.000127865084845 -13.8127521374 0)
(0.000107936946518 -13.812727766 0)
(0.000108044266476 -13.8127066143 0)
(0.000126643248274 -13.8126849497 0)
(0.000165180588164 -13.8126593842 0)
(0.000228220033943 -13.812626495 0)
(0.000328308947114 -13.8125828469 0)
(0.000510062767407 -13.8125244415 0)
(0.000874905974972 -13.8124377517 0)
(0.00138472775838 -13.8122826905 0)