/*--------------------------------*- C++ -*----------------------------------*\
| =========                 |                                                 |
| \\      /  F ield         | OpenFOAM: The Open Source CFD Toolbox           |
|  \\    /   O peration     | Version:  2112                                  |
|   \\  /    A nd           | Website:  www.openfoam.com                      |
|    \\/     M anipulation  |                                                 |
\*---------------------------------------------------------------------------*/
FoamFile
{
    version     2.0;
    format      ascii;
    arch        "LSB;label=32;scalar=64";
    class       volScalarField;
    location    "0.2";
    object      gradTy;
}
// * * * * * * * * * * * * * * * * * * * * * * * * * * * * * * * * * * * * * //

dimensions      [0 -1 0 1 0 0 0];

internalField   nonuniform List<scalar> 
1681
(
-17.2578723076
-17.2067138454
-17.113624958
-16.994840748
-16.8688492478
-16.7474293455
-16.6395774156
-16.5494703261
-16.4777437416
-16.4228513855
-16.3821984366
-16.3529167645
-16.3323217353
-16.3181299138
-16.3085209814
-16.3021119061
-16.2978907566
-16.2951394112
-16.293360953
-16.2922186673
-16.2914883133
-16.2910226384
-16.2907260008
-16.2905367647
-16.2904153782
-16.2903364443
-16.2902835126
-16.2902456732
-16.2902153152
-16.2901866087
-16.2901544082
-16.2901133524
-16.2900569369
-16.2899760326
-16.2898551522
-16.2896652084
-16.2893731352
-16.2890686746
-16.2892070228
-16.2892115349
-16.2893828311
-17.2495587873
-17.1977409719
-17.1037519878
-16.983871011
-16.8567931073
-16.734490179
-16.625965632
-16.5353766103
-16.4633204107
-16.4082109164
-16.3674192476
-16.3380512854
-16.3174038694
-16.3031809608
-16.2935539756
-16.2871346272
-16.2829077384
-16.2801532361
-16.278373061
-16.2772298467
-16.2764989894
-16.2760330388
-16.2757362475
-16.2755469241
-16.2754254878
-16.2753465268
-16.2752935832
-16.2752557445
-16.2752253997
-16.2751967209
-16.2751645678
-16.2751235895
-16.2750673125
-16.2749866927
-16.2748662554
-16.2746756473
-16.2743758231
-16.274050424
-16.2742226341
-16.274252755
-16.2743942465
-17.2330126413
-17.1799227333
-17.0840691428
-16.9619796151
-16.8327355358
-16.7086651896
-16.5987960749
-16.5072447908
-16.4345311775
-16.3789889794
-16.3379211022
-16.3083814687
-16.287629923
-16.2733452831
-16.263682489
-16.2572427896
-16.253004548
-16.2502438119
-16.2484602532
-16.2473152129
-16.2465833681
-16.2461168779
-16.2458197864
-16.2456302929
-16.2455087597
-16.245429746
-16.2453767799
-16.2453389432
-16.245308625
-16.2452800022
-16.2452479441
-16.2452071196
-16.2451511061
-16.2450709944
-16.2449513617
-16.2447600824
-16.244449264
-16.2440919136
-16.2443158642
-16.2443865718
-16.2444900788
-17.2084038458
-17.1534577217
-17.0547109331
-16.9292767386
-16.7967871048
-16.6700626468
-16.5581785847
-16.4651880537
-16.3914929003
-16.3353056462
-16.2938266159
-16.2640318289
-16.2431257722
-16.2287497041
-16.2190339889
-16.2125642885
-16.2083093603
-16.205539493
-16.2037509979
-16.2026033053
-16.2018700332
-16.2014027669
-16.2011052458
-16.2009155099
-16.2007938392
-16.2007147514
-16.2006617546
-16.2006239228
-16.2005936457
-16.2005651076
-16.2005331928
-16.2004925978
-16.2004369611
-16.200357525
-16.2002389782
-16.2000476265
-16.1997269323
-16.19933676
-16.1996142429
-16.1997260672
-16.1998017045
-17.1759926655
-17.1185915862
-17.015885927
-16.8859384854
-16.7491158387
-16.6188473055
-16.5042806591
-16.4093792219
-16.3343841153
-16.2773444693
-16.235323338
-16.2051929219
-16.1840841484
-16.169588484
-16.1598037839
-16.1532951369
-16.1490186526
-16.146237058
-16.1444422662
-16.143291217
-16.1425561541
-16.1420879228
-16.1417898721
-16.1415998397
-16.1414780025
-16.1413988263
-16.141345795
-16.141307974
-16.1412777544
-16.1412493311
-16.1412176088
-16.1411773195
-16.1411221719
-16.1410435696
-16.1409263792
-16.1407357116
-16.1404074599
-16.1399868131
-16.1403143031
-16.1404604247
-16.1405179281
-17.1361208839
-17.075632329
-16.9678626161
-16.832193946
-16.6899354692
-16.5552288439
-16.437315948
-16.3400392606
-16.2634335154
-16.2053408968
-16.1626520881
-16.1321096034
-16.1107528251
-16.096111445
-16.0862431003
-16.0796875036
-16.0753852142
-16.0725896981
-16.0707875059
-16.0696325576
-16.0688954419
-16.0684261196
-16.0681274784
-16.0679371199
-16.0678151022
-16.0677358329
-16.0676827695
-16.0676449688
-16.0676148255
-16.0675865485
-16.067555069
-16.0675151629
-16.0674606179
-16.0673830107
-16.0672674533
-16.0670782661
-16.0667451567
-16.0662980107
-16.066669555
-16.0668406424
-16.066886969
-17.0892105567
-17.0249559978
-16.9109669239
-16.7683224719
-16.6195039973
-16.4794608232
-16.3575436038
-16.2574369168
-16.1789197831
-16.1195822251
-16.0761069794
-16.0450810918
-16.0234347024
-16.0086240664
-15.9986591812
-15.9920498123
-15.9877182447
-15.9849071143
-15.9830967375
-15.9819375488
-15.9811982436
-15.9807277825
-15.9804285383
-15.9802378539
-15.9801156603
-15.9800363048
-15.9799832189
-15.9799454527
-15.9799154075
-15.9798873106
-15.9798561255
-15.9798166811
-15.9797628549
-15.9796864109
-15.9795727754
-15.9793858759
-15.9790507058
-15.9785820003
-15.9789905673
-15.979177802
-15.97921763
-17.0357644734
-16.967009002
-16.8455816475
-16.6946524871
-16.5381236951
-16.391841239
-16.2652693488
-16.1618901641
-16.0811732927
-16.0204094644
-15.976037387
-15.9444630015
-15.9224898798
-15.9074895812
-15.8974173974
-15.8907488616
-15.8863854786
-15.8835576443
-15.8817386822
-15.8805751527
-15.8798336716
-15.8793621169
-15.8790623148
-15.8788713405
-15.8787489979
-15.878669577
-15.8786164869
-15.878578775
-15.8785488531
-15.878520972
-15.8784901345
-15.8784512317
-15.8783982435
-15.8783231388
-15.8782117294
-15.8780279288
-15.8776934654
-15.8772086788
-15.8776469556
-15.8778432775
-15.8778796915
-16.9763665218
-16.9023082981
-16.7721450273
-16.6115593866
-16.4461400372
-16.2927121276
-16.1608456694
-16.0537668172
-15.9705770007
-15.9082184032
-15.8628491216
-15.8306685835
-15.8083369385
-15.7931302841
-15.7829425698
-15.7762111556
-15.7718145204
-15.7689696003
-15.7671421007
-15.7659744117
-15.7652309433
-15.7647584486
-15.7644582009
-15.7642670142
-15.7641445752
-15.7640651257
-15.76401206
-15.7639744287
-15.7639446595
-15.7639170326
-15.7638865975
-15.7638483179
-15.7637962899
-15.7637227086
-15.763613845
-15.7634339562
-15.7631028775
-15.7626077199
-15.7630685621
-15.7632688562
-15.7633038337
-16.911681822
-16.8314402318
-16.6911482094
-16.5194624043
-16.3439395035
-16.1824581725
-16.0446710876
-15.9334842633
-15.8475664722
-15.7834598175
-15.7370047496
-15.7041691136
-15.6814533708
-15.6660279845
-15.6557194366
-15.6489233785
-15.6444933233
-15.6416317497
-15.6397962758
-15.6386249307
-15.6378798641
-15.6374067069
-15.6371062021
-15.6369149279
-15.6367924748
-15.6367130521
-15.6366600509
-15.6366225336
-15.6365929512
-15.6365656199
-15.636535644
-15.6364980708
-15.6364471281
-15.6363752619
-15.6362692776
-15.6360941133
-15.6357689787
-15.635269167
-15.63574582
-15.6359466231
-15.635981329
-16.8424568328
-16.7550586188
-16.6031317961
-16.4188206756
-16.2319465645
-16.0615046342
-15.9171888383
-15.801508644
-15.7126293777
-15.6466391571
-15.5990233942
-15.5654937626
-15.5423754904
-15.5267239407
-15.5162926005
-15.5094323485
-15.5049701463
-15.5020932735
-15.5002509704
-15.4990768363
-15.4983307858
-15.4978573828
-15.4975568955
-15.4973657118
-15.4972433597
-15.4971640398
-15.4971111564
-15.4970737951
-15.4970444389
-15.4970174479
-15.4969879902
-15.4969512084
-15.4969014789
-15.4968315256
-15.496728765
-15.4965591346
-15.4962423717
-15.4957434674
-15.4962296445
-15.496428707
-15.4964636634
-16.7695196879
-16.6738824469
-16.5086816826
-16.3101286885
-16.1106201303
-15.9303148921
-15.7788852483
-15.6583537802
-15.5663047507
-15.4983160012
-15.4494803075
-15.4152292363
-15.3916981123
-15.3758185614
-15.3652662415
-15.3583447364
-15.3538532756
-15.3509634882
-15.3491161498
-15.3479404981
-15.3471943284
-15.3467212506
-15.3464211507
-15.3462302945
-15.3461081952
-15.3460290772
-15.3459763793
-15.3459392252
-15.3459101404
-15.3458835384
-15.3458546603
-15.3458187565
-15.3457703703
-15.3457025329
-15.3456033478
-15.3454400528
-15.3451339513
-15.3446412497
-15.3451311265
-15.3453269869
-15.3453621772
-16.6937810018
-16.5886934237
-16.4084242959
-16.1939112377
-15.9804496501
-15.7893878005
-15.6302880159
-15.5045800364
-15.4091821969
-15.339103468
-15.2890063958
-15.254019368
-15.2300741827
-15.2139710556
-15.2033037766
-15.1963267295
-15.1918106885
-15.1889115104
-15.1870616458
-15.1858861925
-15.1851410428
-15.1846690306
-15.1843697923
-15.1841795649
-15.1840579105
-15.1839791186
-15.1839266898
-15.1838898042
-15.1838610428
-15.1838348825
-15.1838066481
-15.1837717107
-15.1837247998
-15.1836592843
-15.1835640299
-15.1834078587
-15.1831145682
-15.1826330293
-15.1831211915
-15.183312825
-15.1833477691
-16.6162353804
-16.5003334951
-16.3030212763
-16.0707179329
-15.8419509793
-15.6392549835
-15.4719645148
-15.3407932371
-15.2419011621
-15.16966768
-15.1182877966
-15.0825647567
-15.0582144504
-15.0418991205
-15.0311275546
-15.024103728
-15.019569751
-15.0166659523
-15.0148168508
-15.0136437959
-15.0129011039
-15.0124310811
-15.0121332915
-15.0119440644
-15.0118230903
-15.011744776
-15.0116927174
-15.0116561727
-15.0116277937
-15.0116021325
-15.0115746088
-15.0115407279
-15.0114954252
-15.011432439
-15.0113414698
-15.0111931913
-15.0109147216
-15.0104489314
-15.0109303021
-15.0111168557
-15.0111506754
-16.5379638623
-16.4097023896
-16.193163567
-15.9411172581
-15.6956620761
-15.480478145
-15.304520186
-15.1676436894
-15.0651503014
-14.990727322
-14.9380655386
-14.9016224818
-14.8768872078
-14.8603786939
-14.8495186121
-14.8424601003
-14.83791697
-14.8350146719
-14.8331704663
-14.8320025313
-14.8312640555
-14.8307971431
-14.8305015107
-14.8303137302
-14.8301937186
-14.8301160627
-14.830064494
-14.8300283746
-14.8300004448
-14.8299753452
-14.8299486021
-14.8299158695
-14.8298723084
-14.829812058
-14.8297257233
-14.8295860805
-14.8293243026
-14.8288784579
-14.8293482176
-14.8295288244
-14.8295603088
-16.4601375398
-16.3177551921
-16.079564824
-15.8056901491
-15.5421385589
-15.3136464321
-15.1285970481
-14.9858253258
-14.8796669531
-14.8030532859
-14.7491352733
-14.712005877
-14.6869180831
-14.6702437511
-14.6593164681
-14.6522389739
-14.6476977794
-14.6448045554
-14.6429702813
-14.6418107446
-14.6410785856
-14.6406161142
-14.6403234763
-14.6401376686
-14.6400189514
-14.639942166
-14.6398912266
-14.6398556298
-14.6398282243
-14.6398037543
-14.6397778652
-14.639746374
-14.6397046877
-14.6396473767
-14.6395660163
-14.6394357194
-14.6391923662
-14.6387702756
-14.6392237841
-14.6393974419
-14.6394251133
-16.3840226298
-16.2254999084
-15.9629539905
-15.6650230209
-15.3819491313
-15.1393738686
-14.9448723232
-14.7960749486
-14.6862366849
-14.6074683607
-14.5523470316
-14.5145843129
-14.4891898291
-14.4723860899
-14.4614189013
-14.4543420035
-14.4498163013
-14.4469412718
-14.4451229236
-14.443975653
-14.443252272
-14.4427957931
-14.442507123
-14.4423238981
-14.4422068595
-14.4421311897
-14.4420810401
-14.4420460767
-14.4420192797
-14.4419955128
-14.4419705548
-14.4419403996
-14.44190072
-14.441846547
-14.4417704868
-14.4416502069
-14.4414268743
-14.4410319687
-14.4414646938
-14.4416301938
-14.4416523751
-16.3109873125
-16.1339949333
-15.8440668257
-15.5197001584
-15.2156708712
-14.9582968569
-14.7540571572
-14.5991715316
-14.4856928542
-14.4048469009
-14.348604931
-14.3102829112
-14.2846420281
-14.2677550208
-14.2567816253
-14.2497290328
-14.2452349961
-14.2423889149
-14.2405934952
-14.2394629763
-14.2387512118
-14.2383025077
-14.2380189202
-14.2378389757
-14.2377240546
-14.2376497799
-14.2376006027
-14.2375663977
-14.2375403026
-14.2375173187
-14.2374933724
-14.2374646494
-14.2374271066
-14.2373762631
-14.2373058109
-14.2371961734
-14.2369943207
-14.2366296696
-14.2370371253
-14.2371930187
-14.2372079
-16.2425107175
-16.0443462846
-15.7236361009
-15.3702953608
-15.0438843708
-14.7710717338
-14.5568953918
-14.3959355156
-14.2789161021
-14.1961143819
-14.1388667354
-14.1000820855
-14.0742706069
-14.0573568546
-14.0464177515
-14.0394175377
-14.0349740913
-14.0321694217
-14.0304049836
-14.0292963429
-14.0285994242
-14.0281605155
-14.0278832716
-14.0277073954
-14.0275950872
-14.0275225228
-14.0274745233
-14.0274412167
-14.0274159267
-14.0273938123
-14.0273709625
-14.0273437688
-14.0273084906
-14.0272611591
-14.0271966005
-14.0270981789
-14.0269191289
-14.0265874601
-14.0269651546
-14.027109749
-14.0271154513
-16.1801945176
-15.9577043994
-15.6023801004
-15.2173627163
-14.8671687161
-14.5783723581
-14.3541623313
-14.1872280123
-14.0668336794
-13.9822467305
-13.9241431493
-13.8850167883
-13.859127036
-13.8422540605
-13.8313969129
-13.8244817232
-13.8201106586
-13.8173616353
-13.815637315
-13.8145563382
-13.8138778943
-13.8134510452
-13.8131815552
-13.8130106279
-13.8129014857
-13.8128309834
-13.8127843905
-13.8127521374
-13.812727766
-13.8127066143
-13.8126849497
-13.8126593842
-13.812626495
-13.8125828469
-13.8125244415
-13.8124377517
-13.8122826905
-13.8119864113
-13.8123298058
-13.8124611831
-13.8124558184
-16.1257777032
-15.8752602037
-15.4809889643
-15.0614263765
-14.686096298
-14.3808876987
-14.1466634331
-13.9739498163
-13.8504184867
-13.7642693005
-13.7054967101
-13.666175322
-13.6403170699
-13.6235639472
-13.6128438996
-13.6060511255
-13.6017771913
-13.5990998658
-13.5974259051
-13.5963790464
-13.5957231113
-13.5953108321
-13.5950506571
-13.5948856525
-13.5947802878
-13.5947122364
-13.5946673027
-13.5946362741
-13.5946129452
-13.5945928563
-13.5945724703
-13.5945486328
-13.5945182535
-13.5944784475
-13.5944264253
-13.59435192
-13.5942218969
-13.5939631154
-13.5942675932
-13.5943836457
-13.594365372
-16.0811552564
-15.7982400607
-15.3601082979
-14.9029691987
-14.5012274644
-14.1793193925
-13.9352328379
-13.7570401107
-13.6306876956
-13.5432553533
-13.4840401302
-13.4446975621
-13.4189988727
-13.4024567116
-13.3919366495
-13.3853085594
-13.3811595227
-13.3785717885
-13.3769595427
-13.3759539272
-13.3753249394
-13.3749299855
-13.3746808369
-13.3745228217
-13.3744219044
-13.3743567298
-13.374313732
-13.3742841144
-13.3742619625
-13.3742430439
-13.3742240341
-13.374202026
-13.3741742733
-13.3741384537
-13.3740930112
-13.374031075
-13.3739270029
-13.3737075511
-13.373968394
-13.3740668754
-13.3740339444
-16.0484016358
-15.7278990536
-15.2403193369
-14.742420145
-14.3131050455
-13.9743792411
-13.7207316499
-13.5374747425
-13.4087008097
-13.320323889
-13.2609339313
-13.2217724307
-13.1963803648
-13.1801526895
-13.1699034265
-13.163487246
-13.1594939176
-13.1570155118
-13.1554774432
-13.1545208589
-13.1539236545
-13.1535490223
-13.1533127587
-13.1531628909
-13.1530671484
-13.153005313
-13.1529645513
-13.152936547
-13.1529157172
-13.1528980836
-13.1528805525
-13.1528604764
-13.1528354627
-13.1528037582
-13.1527650552
-13.1527159993
-13.1526386552
-13.1524601138
-13.1526724859
-13.1527510735
-13.1527018718
-16.0298002365
-15.6655118698
-15.1221147889
-14.5801403616
-14.1222488225
-13.7667866215
-13.5040458737
-13.3162639374
-13.1855570198
-13.0966366772
-13.0373832121
-12.9986344592
-12.9737156283
-12.9579186418
-12.9480190217
-12.9418669528
-12.9380631717
-12.935715649
-12.9342653026
-12.9333661809
-12.9328059809
-12.9324548986
-12.9322335205
-12.9320930463
-12.9320032612
-12.9319452632
-12.9319070609
-12.9318808873
-12.9318615352
-12.9318453087
-12.9318293634
-12.9318113234
-12.9317891565
-12.9317616788
-12.9317298351
-12.9316938927
-12.9316439194
-12.9315076464
-12.9316665812
-12.9317229465
-12.9316560321
-16.0278803226
-15.6123602884
-15.0058692757
-14.4164079342
-13.9291500631
-13.557265798
-13.2860839133
-13.0944493304
-12.9623917123
-12.8733943362
-12.8146333971
-12.7765592846
-12.7523002126
-12.7370629203
-12.7275998178
-12.7217689882
-12.7181915586
-12.7159982348
-12.7146501938
-12.7138175786
-12.7132999673
-12.7129758819
-12.7127715234
-12.7126417723
-12.71255878
-12.7125051509
-12.7124698534
-12.7124457429
-12.7124280341
-12.7124133439
-12.7123990964
-12.7123831983
-12.712363981
-12.7123408239
-12.7123159161
-12.7122932373
-12.7122711458
-12.7121783116
-12.7122786985
-12.7123105819
-12.7122247159
-16.0454633617
-15.5697159237
-14.8918030599
-14.2514014233
-13.7342663129
-13.3465431374
-13.0677735484
-12.8731001889
-12.7403719986
-12.651831327
-12.5939648283
-12.5568579397
-12.5334652015
-12.5189293714
-12.5099975772
-12.5045499101
-12.5012384852
-12.4992243459
-12.497994166
-12.4972376686
-12.4967685648
-12.4964751235
-12.4962900412
-12.4961724185
-12.4960971029
-12.4960484057
-12.4960163789
-12.4959945775
-12.4959786875
-12.4959656697
-12.4959532367
-12.4959395878
-12.4959234188
-12.4959046574
-12.4958867153
-12.4958773619
-12.4958835349
-12.495835166
-12.4958717328
-12.4958770158
-12.4957711962
-16.085721265
-15.5388163913
-14.7799374453
-14.0851824561
-13.5380167205
-13.1353442454
-12.8500583142
-12.6533087302
-12.5206911558
-12.4332097483
-12.3766860871
-12.340869825
-12.3185699268
-12.3048898641
-12.2965918396
-12.2915938343
-12.2885907416
-12.2867823129
-12.2856864326
-12.285016172
-12.2846017906
-12.2843428171
-12.2841793753
-12.2840753543
-12.2840086423
-12.2839654681
-12.2839370964
-12.2839178628
-12.2839039757
-12.2838927731
-12.2838822759
-12.2838709855
-12.2838579589
-12.2838436495
-12.2838326534
-12.2838365923
-12.2838712881
-12.2838683242
-12.2838356096
-12.2838123758
-12.2836858817
-16.15224978
-15.5208324055
-14.67003989
-13.9176779025
-13.3407782755
-12.9243910666
-12.6338932294
-12.4361844531
-12.3045618974
-12.2188118533
-12.1641259663
-12.1299542828
-12.1089932526
-12.0963353665
-12.088780854
-12.0843032692
-12.0816532712
-12.0800784502
-12.0791340754
-12.0785606032
-12.0782074076
-12.0779868726
-12.0778475255
-12.077758636
-12.077701491
-12.0776644548
-12.0776401388
-12.0776237426
-12.0776120505
-12.0776028118
-12.0775943763
-12.0775855558
-12.0775757621
-12.0775659419
-12.0775618189
-12.077578915
-12.0776422716
-12.0776856404
-12.0775779503
-12.0775245218
-12.077376979
-16.2491612643
-15.5168224097
-14.5615564428
-13.748662525
-13.1428834544
-12.7143990023
-12.4202398404
-12.2228474391
-12.0932084303
-12.0099312495
-11.9576240603
-11.9254807433
-11.9061233999
-11.8946655424
-11.8879710171
-11.8840884483
-11.881838435
-11.8805262764
-11.8797512383
-11.8792854473
-11.8790000921
-11.8788220779
-11.8787093479
-11.878637163
-11.8785905772
-11.8785603131
-11.8785404663
-11.8785271864
-11.8785178881
-11.878510767
-11.8785045232
-11.8784982863
-11.8784918128
-11.8784865008
-11.8784891218
-11.8785191288
-11.8786111664
-11.8787018823
-11.8785132249
-11.8784281552
-11.878259645
-16.3812023599
-15.5276700898
-14.453528601
-13.5777435079
-12.9446198974
-12.5060741142
-12.2100605789
-12.014420617
-11.8878573018
-11.807862794
-11.7585199891
-11.7288174638
-11.7113463369
-11.7012768944
-11.695564848
-11.6923551926
-11.6905538021
-11.6895342592
-11.6889468449
-11.6885998604
-11.6883891237
-11.6882577827
-11.6881742355
-11.6881203568
-11.6880853414
-11.688062497
-11.6880475423
-11.6880376641
-11.6880309636
-11.6880261184
-11.6880222
-11.6880186627
-11.6880155948
-11.6880147927
-11.6880239695
-11.6880665178
-11.6881871385
-11.6883264313
-11.6880504257
-11.6879324221
-11.6877436587
-16.5539037836
-15.5539984027
-14.3444910754
-13.4043489937
-12.7462328589
-12.3001104754
-12.0043124597
-11.8120210328
-11.6897270931
-11.6138912559
-11.5681413388
-11.5413189484
-11.5260328244
-11.5175495483
-11.5129475942
-11.5104913996
-11.5091885625
-11.5084921827
-11.5081109364
-11.5078939915
-11.5077646974
-11.507684205
-11.5076324205
-11.5075984603
-11.5075760354
-11.507561265
-11.5075516305
-11.5075454436
-11.5075415481
-11.5075391403
-11.5075376842
-11.5075369652
-11.5075373872
-11.5075410818
-11.507556564
-11.5076111468
-11.5077601269
-11.507949609
-11.5075793649
-11.5074271046
-11.5072197182
-16.7737716948
-15.5960513668
-14.2323462306
-13.2277237612
-12.5479312686
-12.0971877078
-11.8039401826
-11.6167502147
-11.5000170745
-11.4292788792
-11.3877904611
-11.364312199
-11.3515242756
-11.3448328383
-11.3414726319
-11.3398523227
-11.3390987321
-11.3387563047
-11.3385998022
-11.3385240954
-11.3384830271
-11.3384575282
-11.3384400687
-11.3384276306
-11.3384188126
-11.3384127699
-11.3384088841
-11.338406679
-11.3384057973
-11.3384059899
-11.3384071356
-11.3384093561
-11.3384133533
-11.3384215193
-11.3384429925
-11.3385089471
-11.3386859195
-11.3389277992
-11.3384557694
-11.3382675596
-11.3380445311
-17.0485330772
-15.65353158
-14.1142101313
-13.0469365757
-12.3498982844
-11.8979686843
-11.6098687339
-11.4296837769
-11.3198949984
-11.2552520441
-11.2187303474
-11.1990820215
-11.1891176572
-11.1844299285
-11.1824458996
-11.1817448839
-11.1815913884
-11.1816335469
-11.1817201421
-11.1817966804
-11.1818504828
-11.1818840337
-11.181903408
-11.1819140654
-11.1819198543
-11.1819231838
-11.1819254705
-11.1819275354
-11.181929875
-11.1819328316
-11.18193672
-11.181942004
-11.181949664
-11.1819622685
-11.1819893537
-11.1820658397
-11.1822702582
-11.1825676058
-11.181985423
-11.1817586394
-11.1815249458
-17.3874515201
-15.7253768775
-13.9862241929
-12.8609056635
-12.152307139
-11.7030972798
-11.4229956243
-11.2518604577
-11.1504842628
-11.0929872926
-11.0621698545
-11.0468556757
-11.0400497299
-11.0375817703
-11.0371096686
-11.037411325
-11.0379082489
-11.0383650301
-11.0387125759
-11.0389520018
-11.0391070775
-11.039203582
-11.0392622074
-11.03929748
-11.0393188447
-11.0393321733
-11.0393410458
-11.0393476623
-11.0393534274
-11.0393593099
-11.0393660825
-11.0393745566
-11.0393859718
-11.0394029802
-11.0394352345
-11.0395212079
-11.0397522873
-11.040109359
-11.0394076771
-11.0391378987
-11.0389014374
-17.8017350595
-15.8094532535
-13.8433254115
-12.6684514092
-11.9553428221
-11.5131959015
-11.2441829375
-11.0842708331
-10.9928507352
-10.943597036
-10.9192486226
-10.9087872203
-10.9054809877
-10.9054507645
-10.9066260227
-10.9080125724
-10.9092089673
-10.9101093288
-10.910734876
-10.9111472826
-10.9114096788
-10.9115728209
-10.9116729825
-10.9117343116
-10.911772175
-10.9117961018
-10.9118119567
-10.9118233962
-10.9118327843
-10.9118417512
-10.9118515488
-10.9118633421
-10.9118786113
-10.9118999957
-10.9119369171
-10.9120311013
-10.9122877207
-10.9127103387
-10.9118787222
-10.9115584578
-10.9113313195
-18.3050647831
-15.9021324519
-13.6789671237
-12.4683889986
-11.7592295547
-11.3288623242
-11.07424941
-10.9278459878
-10.8479895679
-10.8081153173
-10.7910220734
-10.7859419549
-10.7864797066
-10.7891045427
-10.7920604668
-10.79461174
-10.7965545727
-10.7979258766
-10.7988453521
-10.7994400872
-10.7998153786
-10.8000485515
-10.8001923593
-10.8002810822
-10.8003363048
-10.8003713914
-10.8003946019
-10.8004111212
-10.8004243205
-10.8004365245
-10.8004494857
-10.800464729
-10.8004839605
-10.8005097098
-10.8005507454
-10.8006516012
-10.8009321608
-10.8014281361
-10.8004550633
-10.8000719515
-10.7998721092
-18.9142823617
-15.9977105575
-13.4847813135
-12.2596786913
-11.5642629294
-11.1506650913
-10.9139628262
-10.7834464478
-10.7168123694
-10.6874840315
-10.678446913
-10.6792813956
-10.684006549
-10.6895003221
-10.6943661239
-10.6981582312
-10.7008915189
-10.7027589852
-10.7039868563
-10.7047723192
-10.7052654856
-10.7055717194
-10.7057610648
-10.7058783878
-10.7059517515
-10.7059985116
-10.7060294211
-10.7060512573
-10.7060684433
-10.7060840291
-10.7061002888
-10.7061191142
-10.7061424275
-10.7061725607
-10.7062171212
-10.70632282
-10.7066250365
-10.7072046016
-10.7060776854
-10.7056120404
-10.7054654894
-19.6502873914
-16.0876071697
-13.2501728705
-12.0416581721
-11.3708437227
-10.9791364413
-10.7640330917
-10.6518516919
-10.6001351075
-10.5825400261
-10.5823675775
-10.5896492363
-10.5989001854
-10.6074703031
-10.6143689935
-10.6194729178
-10.6230368202
-10.6254229599
-10.626971888
-10.6279553222
-10.6285706257
-10.6289525136
-10.6291890256
-10.6293359974
-10.629428189
-10.6294870775
-10.6295259923
-10.629553359
-10.6295746912
-10.6295937928
-10.6296134802
-10.6296360198
-10.6296635475
-10.6296981301
-10.6297456124
-10.629854017
-10.6301746486
-10.6308508346
-10.629557409
-10.6289790013
-10.6289223189
-20.5392125976
-16.1592614991
-12.9618362439
-11.8143906541
-11.1795073329
-10.8147614223
-10.6251064815
-10.5337505383
-10.4986671187
-10.4940035012
-10.503504057
-10.5177587412
-10.5318643879
-10.5437085683
-10.5527547361
-10.5592348627
-10.563664745
-10.5665887805
-10.5684692721
-10.5696565579
-10.5703974206
-10.5708570472
-10.5711420488
-10.5713195344
-10.5714311287
-10.5715025318
-10.5715497145
-10.5715827962
-10.5716084146
-10.5716311529
-10.5716543896
-10.5716807743
-10.571712663
-10.5717518269
-10.5718016459
-10.5719103093
-10.5722448041
-10.5730336455
-10.5715619208
-10.5708259447
-10.5709091007
-21.6139681814
-16.1946094392
-12.6031862042
-11.5791749277
-10.9909379474
-10.657961663
-10.497761743
-10.4297326648
-10.4130015694
-10.4224681038
-10.4424414987
-10.4641819813
-10.4834570152
-10.4987599095
-10.5100574127
-10.5179700185
-10.5232954991
-10.5267727841
-10.5289928446
-10.5303882962
-10.5312571815
-10.5317960528
-10.53213052
-10.5323391749
-10.5324706195
-10.5325548442
-10.5326105068
-10.5326494549
-10.5326794767
-10.5327059564
-10.5327328542
-10.5327632113
-10.532799621
-10.5328435884
-10.5328952208
-10.533001414
-10.5333434944
-10.5342638661
-10.5326049109
-10.531647245
-10.5319362415
-22.9162780953
-16.1679788789
-12.1536943585
-11.3392832842
-10.8059477355
-10.5090697787
-10.382506155
-10.3402783058
-10.3436042152
-10.3683892554
-10.3996178014
-10.4293368443
-10.4540765841
-10.473006089
-10.4866455402
-10.4960371534
-10.5022810724
-10.5063224619
-10.50888722
-10.5104933636
-10.5114916458
-10.5121106119
-10.5124951264
-10.5127353684
-10.5128869652
-10.5129842272
-10.5130485236
-10.5130934505
-10.513127966
-10.5131582729
-10.5131889313
-10.5132233817
-10.5132644833
-10.5133135949
-10.513366652
-10.5134674598
-10.513808209
-10.5148800319
-10.513029201
-10.5118079021
-10.5123469284
)
;

boundaryField
{
    inout
    {
        type            empty;
    }
    top
    {
        type            calculated;
        value           nonuniform List<scalar> 
41
(
-23.6301604094
-16.1354081078
-11.9034032069
-11.2187280967
-10.7144555466
-10.4366358224
-10.3279594318
-10.2992447956
-10.3130224134
-10.3457618078
-10.3828107211
-10.4166392738
-10.4441824319
-10.4649648765
-10.4797961314
-10.489937552
-10.4966454838
-10.5009710344
-10.5037090384
-10.5054209209
-10.5064840999
-10.5071432384
-10.5075528693
-10.5078089775
-10.5079707063
-10.5080745288
-10.5081431727
-10.5081911119
-10.5082278933
-10.5082601325
-10.5082926944
-10.5083292207
-10.5083727119
-10.5084244976
-10.5084781929
-10.5085755648
-10.5089130027
-10.5100654633
-10.5081180934
-10.5067627664
-10.507430247
)
;
    }
    bottom
    {
        type            calculated;
        value           nonuniform List<scalar> 
41
(
-17.2599557649
-17.2089663451
-17.1160975258
-16.9975862143
-16.8718673604
-16.7506680983
-16.6429843724
-16.552997878
-16.4813538263
-16.4265158654
-16.3858976833
-16.3566376484
-16.3360557621
-16.3218717446
-16.3122673474
-16.3058608551
-16.3016411502
-16.2988906003
-16.2971125753
-16.2959705244
-16.2952402978
-16.2947746929
-16.2944780943
-16.2942888805
-16.2941675066
-16.2940885797
-16.294035651
-16.2939978116
-16.2939674503
-16.2939387368
-16.2939065245
-16.2938654493
-16.2938089984
-16.2937280195
-16.2936070252
-16.2934172919
-16.2931274203
-16.2928286895
-16.2929576783
-16.2929554749
-16.2931353218
)
;
    }
    frontback
    {
        type            empty;
    }
}


// ************************************************************************* //
