/*--------------------------------*- C++ -*----------------------------------*\
| =========                 |                                                 |
| \\      /  F ield         | OpenFOAM: The Open Source CFD Toolbox           |
|  \\    /   O peration     | Version:  2112                                  |
|   \\  /    A nd           | Website:  www.openfoam.com                      |
|    \\/     M anipulation  |                                                 |
\*---------------------------------------------------------------------------*/
FoamFile
{
    version     2.0;
    format      ascii;
    arch        "LSB;label=32;scalar=64";
    class       volScalarField;
    location    "0.2";
    object      gradTx;
}
// * * * * * * * * * * * * * * * * * * * * * * * * * * * * * * * * * * * * * //

dimensions      [0 -1 0 1 0 0 0];

internalField   nonuniform List<scalar> 
1681
(
2622.2765539
0.00719291195369
0.010569006543
0.0122115082697
0.0123459057973
0.0114441494
0.00988351101565
0.00808152730665
0.0063241006303
0.00477280714769
0.00349391085438
0.00249209606118
0.00173829518945
0.00118942073411
0.000800544470717
0.000531309861169
0.000348512743941
0.00022642874533
0.000146003795615
9.36138739037e-05
5.97915729246e-05
3.81101737784e-05
2.42906222155e-05
1.55293843108e-05
1.00150353512e-05
6.59278169105e-06
4.53840886192e-06
3.41003621214e-06
2.95373515186e-06
3.04628907236e-06
3.66437650497e-06
4.87630758226e-06
6.87149230596e-06
1.00986583522e-05
1.55363787721e-05
2.39802441056e-05
2.94301170275e-05
8.4871041674e-06
-6.33926853571e-06
-8.88217503276e-06
-2622.37069551
2618.83052888
0.021656557967
0.0318056129417
0.0367436337689
0.0371363747048
0.0344102170463
0.02970829286
0.0242852074989
0.0189996874827
0.0143362538419
0.0104930133412
0.00748324420582
0.00521907496624
0.00357073004908
0.00240305705794
0.00159473508737
0.00104598624135
0.000679531990622
0.000438144982609
0.000280914058199
0.00017941419891
0.000114352324768
7.28841236588e-05
4.6595136197e-05
3.00490390624e-05
1.97803446107e-05
1.36158163317e-05
1.02294364005e-05
8.85917269802e-06
9.1351167309e-06
1.09868755941e-05
1.46179448857e-05
2.05924715525e-05
3.0258281327e-05
4.66284501253e-05
7.24231561398e-05
8.98766484601e-05
2.4735379557e-05
-2.22327937707e-05
-2.62794925507e-05
-2619.11358571
2615.38709395
0.0363542718584
0.053342998717
0.0616032843654
0.0622220721969
0.0576096444691
0.0497062247614
0.04061057156
0.0317572393999
0.0239530397651
0.0175258370597
0.0124951717171
0.00871236010757
0.00595939949455
0.00400981119455
0.00266055728966
0.00174479097061
0.00113336422845
0.000730681664865
0.000468428195265
0.000299153150436
0.000190658552038
0.000121513563778
7.76813231569e-05
5.00945099747e-05
3.29737027184e-05
2.26948556812e-05
1.70467463499e-05
1.47584548634e-05
1.52126537391e-05
1.82906558458e-05
2.43273828025e-05
3.42508653082e-05
5.03100677475e-05
7.77454528056e-05
0.00012206669927
0.000154474770229
3.91249191648e-05
-4.68054642626e-05
-4.32046552916e-05
-2615.86096611
2611.9479418
0.0514452576718
0.0753942365887
0.087010355172
0.0877992597999
0.0811981092137
0.069992372625
0.0571381869841
0.0446508497523
0.0336582689099
0.0246145154872
0.0175414800437
0.0122263120881
0.00836021684336
0.00562355576326
0.00373032328376
0.00244578178425
0.00158839094833
0.00102386478267
0.000656291092825
0.000419081193945
0.000267068655604
0.000170201117768
0.000108800475053
7.01584223943e-05
4.61763067745e-05
3.17763689777e-05
2.38604196564e-05
2.0647385866e-05
2.12712934927e-05
2.55633859689e-05
3.39855538728e-05
4.78175132442e-05
7.02071425082e-05
0.000108810850468
0.000172842707812
0.000223510410242
5.14153346701e-05
-8.11644270288e-05
-6.11224128562e-05
-2612.61581038
2608.51472163
0.0670928543991
0.098179195347
0.113188050032
0.114064890546
0.105331348485
0.0906811433842
0.0739477084463
0.0577337209042
0.0434862966343
0.031780600519
0.0226353404638
0.0157687850603
0.010777756148
0.00724689432535
0.00480548301189
0.00314975007522
0.00204503670399
0.00131791920322
0.000844621132333
0.000539260817147
0.000343616034135
0.000218964981166
0.000139962643698
9.02462004933e-05
5.939063446e-05
4.08605738309e-05
3.06685187436e-05
2.6521501553e-05
2.7303234175e-05
3.27926137378e-05
4.35737123853e-05
6.12654266425e-05
8.99066661609e-05
0.000139725147735
0.000224475866301
0.000296648081773
6.16628068488e-05
-0.000124666907796
-8.06969797762e-05
-2609.38106055
2605.08902495
0.0834666053598
0.121924856755
0.140364372834
0.14121749577
0.130165145144
0.111885989343
0.0911174957348
0.0710578002697
0.0534704243679
0.0390448249653
0.0277893179788
0.0193471996697
0.013216289743
0.0088822251841
0.00588734953915
0.00385739757204
0.00250366822215
0.00161303298898
0.00103351350994
0.00065974002048
0.000420325069127
0.000267817747646
0.000171174395421
0.000110361090482
7.26177939711e-05
4.99468289827e-05
3.74685465203e-05
3.23759772028e-05
3.33004246309e-05
3.99656920842e-05
5.30729315955e-05
7.4567508162e-05
0.000109365673089
0.000170382431435
0.000276626566858
0.000373290113406
7.00466983668e-05
-0.000175886746127
-0.000101847409298
-2606.15961471
2601.67237099
0.100744507953
0.14686687194
0.168773479408
0.169457910971
0.155855252733
0.133719060034
0.108724194973
0.0846733936763
0.0636425820844
0.0464268591976
0.0330151930699
0.0229684167318
0.0156797010948
0.0105316826176
0.00697706025006
0.00456931117958
0.00296457834633
0.00190934729248
0.00122303394438
0.000780548413752
0.000497208724965
0.000316764928381
0.000202437897743
0.000130503598509
8.58571728013e-05
5.90334040195e-05
4.42573194821e-05
3.82055442969e-05
3.92545162255e-05
4.70697369283e-05
6.24639421179e-05
8.7695862451e-05
0.000128539585969
0.000200674068877
0.000328935183133
0.000452699161401
7.6783156378e-05
-0.000233193238281
-0.000124179780572
-2602.95431503
2598.26619164
0.119115331919
0.173251561941
0.198656958147
0.198989825507
0.182557223848
0.156290770622
0.126842259876
0.0986287386078
0.0740329851181
0.0539450516318
0.0383237733764
0.026638604761
0.0181713939726
0.012197076001
0.0080755368502
0.00528593717404
0.00342796965276
0.00220694607537
0.00141321229603
0.000901693284317
0.000574266124421
0.000365803461496
0.000233749996242
0.000150670910199
9.91060819951e-05
6.8117255022e-05
5.10308232437e-05
4.40044065222e-05
4.51568202771e-05
5.40915898348e-05
7.17270587435e-05
0.000100621535206
0.00014738157671
0.000230489434501
0.000381040480332
0.000534065243859
8.20744029182e-05
-0.000295047084008
-0.00014725994607
-2599.76793563
2594.8718163
0.138781073127
0.201338174912
0.230265069883
0.230020160589
0.210426122007
0.17970927502
0.145543406177
0.112969533613
0.0846697632355
0.0616161517829
0.0437246945128
0.0303631007967
0.0206941975686
0.0138798265289
0.00918344400587
0.0060075546416
0.00389393764086
0.0025058456105
0.00160403605727
0.00102315558762
0.000651480080219
0.000414920194591
0.000265101277785
0.000170856311054
0.000112359384432
7.71937987781e-05
5.77840666206e-05
4.9766146478e-05
5.09982401467e-05
6.1017787806e-05
8.08421420295e-05
0.00011331444081
0.000165842402286
0.000259716066761
0.00043258797785
0.000616549173538
8.60851305513e-05
-0.000360112987856
-0.000170726964446
-2596.60317044
2591.49045668
0.15995963082
0.231401344252
0.263857956164
0.26275927731
0.239616097421
0.204079832697
0.164895993617
0.127738421398
0.095578560926
0.069455015583
0.0492262100019
0.0341462646402
0.023250267721
0.0155809016983
0.0103011467274
0.00673424823144
0.00436245358475
0.00280598379995
0.00179544376892
0.00114488589948
0.000728814621141
0.000464090348584
0.000296475120089
0.000191048597001
0.000125609126739
8.62566712481e-05
6.45109274454e-05
5.54836271123e-05
5.67692234362e-05
6.78345177141e-05
8.97885844494e-05
0.00012574339811
0.000183870537166
0.000288239907252
0.000483233994425
0.000699312506201
8.89374812688e-05
-0.000427274328761
-0.000194314266371
-2593.46262109
2588.12319188
0.182887795644
0.26373374042
0.29970681107
0.29742100695
0.27027980518
0.229504056846
0.184964329257
0.142974422786
0.106782107749
0.0774742925521
0.0548349702803
0.0379913266156
0.0258409844005
0.0173007477336
0.0114286666767
0.00746588039604
0.00483334713397
0.00310720940667
0.00198731838802
0.00126680035463
0.000806212488436
0.000513275996079
0.00032784674934
0.00021123147873
0.000138844161596
9.52974883323e-05
7.12039965663e-05
6.11488954378e-05
6.24596873539e-05
7.45275905674e-05
9.85453219908e-05
0.00013787623683
0.000201412498474
0.000315945781185
0.00053264775979
0.000781538426043
9.07168734374e-05
-0.000495604193549
-0.000217828771605
-2590.34878485
2584.77095359
0.207824638165
0.298648932891
0.338095002486
0.334222485602
0.302567642656
0.256079030733
0.205807885735
0.158712318783
0.118299757622
0.085684094466
0.0605557907795
0.0419002290255
0.0284668456914
0.0190392201488
0.0125656375634
0.0082020632204
0.00530628877562
0.00340927124366
0.00217948068017
0.0013887766093
0.000883592678719
0.000562424538141
0.000359182292879
0.000231382995319
0.000152049779335
0.00010430560774
7.78544266819e-05
6.6753073918e-05
6.80589593707e-05
8.1082411654e-05
0.000107090860289
0.000149679962564
0.000218413299885
0.0003427181092
0.000580512657284
0.000862445952276
9.14829229268e-05
-0.000564322258702
-0.000241118039784
-2587.26404261
2581.43451146
0.235055396704
0.336484492103
0.379319121521
0.373383766217
0.336626781589
0.283896279244
0.227480428772
0.174981978587
0.130146996388
0.0940916455124
0.0663914093139
0.0458734615962
0.0311273585614
0.0207955127327
0.0137112598663
0.00894213003679
0.00578077228879
0.00371180743213
0.00237168267585
0.00151064986434
0.000960848012977
0.000611467217384
0.000390437863841
0.000251474934476
0.000165207337239
0.000113267891928
8.44517714367e-05
7.22862596615e-05
7.35557137393e-05
8.74839603535e-05
0.000115403323483
0.000161120963124
0.00023481699238
0.000368441792976
0.000626527063822
0.000941299046262
9.12818329641e-05
-0.000632751626703
-0.000264038920473
-2584.21064701
2578.1144587
0.264895979343
0.377605370078
0.423689931652
0.415127173046
0.3725999695
0.313040583557
0.250029049529
0.191807632473
0.142334917849
0.102700914467
0.0723422333896
0.0499098914911
0.0338209269217
0.0225680853706
0.0148642551777
0.00968510703594
0.00625609732486
0.00401433482362
0.00256360127227
0.00163220899315
0.00103784278109
0.000660317671199
0.000421558659205
0.000271472272044
0.000178293906532
0.000122168475626
9.09838339258e-05
7.77374214428e-05
7.89379039755e-05
9.37167618187e-05
0.000123460525941
0.000172165254233
0.000250567263837
0.000393003217623
0.000670405000082
0.00101741183501
9.0158267868e-05
-0.000700281383845
-0.000286433553632
-2581.1907105
2574.81119768
0.297698217527
0.422407604555
0.471533180915
0.459676356089
0.410624074494
0.343588628525
0.273493099301
0.209207090013
0.15486966949
0.111512230175
0.07840607856
0.0540065888336
0.0365447377165
0.0243545912321
0.016022820581
0.0104296851739
0.00673135233741
0.00431623870541
0.00275483205104
0.0017531928212
0.00111441048939
0.000708870555163
0.000452478108894
0.000291332631744
0.000191281916184
0.000130988539572
9.74365150987e-05
8.30942962649e-05
8.41927030908e-05
9.97648839338e-05
0.000131240034901
0.00018277875377
0.000265608068559
0.000416291323825
0.000711876697834
0.00109015102667
8.81657455827e-05
-0.00076633647837
-0.00030811358889
-2578.20619351
2571.52492545
0.333856038401
0.471322396378
0.523190229829
0.507254995671
0.450828347528
0.375607474674
0.297903026444
0.227190905939
0.16775187041
0.120521882516
0.0845778995522
0.0581586490743
0.0392946460624
0.026151804083
0.0171845835926
0.0111741927115
0.00720539807777
0.00461676296071
0.00294488341859
0.00187328662672
0.00119035175126
0.000757000244899
0.000483117069809
0.00031100577883
0.000204138839493
0.000139706093352
0.000103793668247
8.83432942274e-05
8.93064364557e-05
0.000105611912739
0.000138719261989
0.000192927555473
0.000279884282506
0.00043819871815
0.000750689158758
0.00115893635239
8.53752610936e-05
-0.000830354681619
-0.000328851801256
-2575.25889267
2568.25561914
0.373812760701
0.524820613153
0.579018433927
0.558085099492
0.493332376659
0.409152849768
0.323279118289
0.245761497992
0.180976005457
0.129721711974
0.0908495165983
0.0623590140011
0.0420650607236
0.0279555466771
0.0183465583142
0.0119165688651
0.00767685195609
0.00491500086228
0.00313317119271
0.0019921189195
0.0012654323478
0.000804559665872
0.000513383089874
0.000330433154099
0.00021682688342
0.000148295780855
0.000110036961589
9.34693973256e-05
9.42645242689e-05
0.000111240938934
0.000145875542279
0.000202578224825
0.000293342349614
0.000458622777644
0.000786606722491
0.0012232397803
8.18821520612e-05
-0.000891769738395
-0.000348379430364
-2572.350429
2565.00302095
0.418069766252
0.583417773868
0.639391201669
0.612384826129
0.538243709143
0.444267258669
0.349630154101
0.264912223532
0.194529801076
0.139098692067
0.0972093400487
0.0665982936749
0.0448488316173
0.0297606213591
0.0195051035969
0.0126543390617
0.00814407362061
0.00520988671403
0.00331901374417
0.0021092586101
0.00133938154079
0.000851379248923
0.000543169769569
0.000349547458941
0.000229302721786
0.000156728692582
0.000116145756626
9.84560725141e-05
9.90514170172e-05
0.000116634551199
0.000152686216833
0.000211698079817
0.000305930925023
0.000477466733568
0.000819411655542
0.0012825840017
7.78113539429e-05
-0.00094999970448
-0.000366388048741
-2569.48223615
2561.76662269
0.467196858059
0.647679568118
0.704697624827
0.670365759799
0.585655119448
0.480977914822
0.37695197889
0.284626424148
0.2083935901
0.148634509907
0.103642097173
0.0708645920896
0.0476371412894
0.0315607442724
0.020655884148
0.013384592436
0.00860515213132
0.00550018859349
0.00350162788279
0.00222421262222
0.00141189066143
0.000897266082258
0.000572356215877
0.000368272311956
0.000241517266846
0.000164972218208
0.000122096989076
0.000103285189967
0.000103650546209
0.000121774812313
0.000159128706235
0.000220255470895
0.000317601489843
0.000494640719882
0.000848904759346
0.00133654055058
7.33212426711e-05
-0.00100443957335
-0.000382534382439
-2566.65554881
2558.54564954
0.52184468957
0.718227958642
0.775341547691
0.732229551514
0.635641504948
0.519294502315
0.405226012041
0.304876450264
0.222539674408
0.158305151351
0.110128565748
0.0751433398501
0.050419402692
0.0333484847561
0.0217938356381
0.0141039622504
0.00905789517879
0.00578450247536
0.00368012562221
0.00233642408854
0.00148261206242
0.000942003268341
0.000600806640803
0.000386521982677
0.0002534154919
0.000172989911777
0.000127865084845
0.000107936946518
0.000108044266476
0.000126643248274
0.000165180588164
0.000228220033943
0.000328308947114
0.000510062767407
0.000874905974972
0.00138472775838
6.86062190541e-05
-0.00105445748423
-0.000396447385963
-2563.87139111
2555.3390429
0.582759741486
0.795747904741
0.851739901703
0.798163831433
0.6882563964
0.559206783992
0.434417709275
0.325622680503
0.236931696121
0.168080498343
0.116645319827
0.079417137641
0.0531831659062
0.0351152117363
0.0229131350094
0.0148086100238
0.00949982084852
0.0060612480185
0.00385351203459
0.00244527121484
0.00155115848091
0.000985349541476
0.000628370119477
0.000404201222329
0.000264936304149
0.000180741404079
0.000133421880967
0.000112389819069
0.000112213811223
0.000131220827848
0.000170819649007
0.000235562940867
0.000338012182633
0.000523659745106
0.000897254964799
0.00142680863886
6.38981760948e-05
-0.00109939393512
-0.000407736897214
-2561.13056541
2552.14544196
0.650802437353
0.880994724089
0.934320080951
0.868337287072
0.743528077913
0.600682078804
0.464475001322
0.346812553409
0.251524029739
0.177923947056
0.123164493772
0.0836656148118
0.0559140367537
0.0368510490938
0.0240071772969
0.0154942141904
0.00992815242768
0.00632866636525
0.00402068437746
0.00255006694695
0.00161710290023
0.00102703918919
0.000654880514369
0.000421205205356
0.000276012498634
0.000188182362983
0.000138736590065
0.000116620505166
0.000116139255973
0.000135487945693
0.000176023938984
0.000242257109223
0.000346674597006
0.000535368257808
0.000915811639738
0.00146248867411
5.94669677551e-05
-0.00113856353123
-0.000416003156406
-2558.43364131
2548.96316384
0.726969133184
0.974802077134
1.0235160684
0.942893792671
0.801455321703
0.643662640352
0.495326737719
0.368379631992
0.266261209211
0.187792056586
0.129653571328
0.0878653077301
0.0585956105479
0.0385448421793
0.0250685603669
0.0161559642079
0.0103398168461
0.00658482027594
0.00418043269642
0.00265005955432
0.00167997897001
0.00106678231042
0.000680156629848
0.000437419598734
0.000286570783777
0.00019526448757
0.000143775785133
0.000120603917855
0.00011979948821
0.000139424400787
0.000180771801755
0.000248277393846
0.000354264602295
0.000545135490857
0.000930456626756
0.0014915134259
5.56199663164e-05
-0.00117125878951
-0.000420846976838
-2555.78094525
2545.79018183
0.812418897116
1.07809050582
1.11976293925
1.02194546784
0.862002757025
0.688062978536
0.526881169368
0.390242724094
0.281077405413
0.197634238729
0.136075207077
0.0919895630445
0.0612094244116
0.0401841377891
0.026089079072
0.0167885610354
0.0107314473014
0.00682759695526
0.0043314421188
0.00274443425834
0.0017392820637
0.00110426546468
0.000704002586515
0.000452720784159
0.000296531903637
0.000201935577448
0.000148503425201
0.000124313178133
0.000123172188641
0.000143009382914
0.000185041894828
0.000253600745705
0.000360756092106
0.000552920033915
0.000941091638928
0.00151366579132
5.27008309647e-05
-0.00119675548001
-0.000421880339519
-2553.17255072
2542.62410142
0.908506222709
1.19187637878
1.22348926169
1.10556454069
0.92509591146
0.733767177153
0.55902450851
0.412305084035
0.295895970745
0.207392500191
0.142387088094
0.096008471212
0.0637349318631
0.0417551799794
0.0270597303634
0.0173862249603
0.011099390668
0.00705471390985
0.00447229704282
0.00283231601519
0.00179447105115
0.00113915275932
0.000726208470728
0.000466976233082
0.000305810855705
0.000208139656793
0.000152880928583
0.000127719643401
0.00012623383799
0.000146221448855
0.000188813194909
0.000258206331503
0.000366128874785
0.00055869269763
0.000947639766433
0.00152876269328
5.10876086966e-05
-0.00121431880884
-0.00041873716079
-2550.60826945
2539.4621337
1.01682110649
1.31728097666
1.33510678178
1.19377389507
0.99061598698
0.780626272064
0.591619609572
0.434453722923
0.310629068452
0.217001249063
0.148541843969
0.0998888358924
0.066149503376
0.0432429242111
0.0279707309091
0.0179427117099
0.0114397202625
0.00726372819808
0.00460148741391
0.00291277359577
0.00184497084281
0.0011710873971
0.00074655126882
0.00048004506333
0.000314317230383
0.000213817179148
0.000156867282532
0.000130792968597
0.000128959723643
0.000149038513724
0.000192064977626
0.000262075619745
0.000370369086779
0.000562437345661
0.000950045686498
0.0015366509376
5.11902931851e-05
-0.00122320953183
-0.000411083817537
-2548.08764366
2536.30106556
1.13923828306
1.45553927885
1.4549966111
1.28653619787
1.05839446435
0.828455766861
0.624504818475
0.456558856406
0.325177404791
0.226387177653
0.154487013458
0.103594184865
0.0684284567271
0.0446310722454
0.028811548758
0.0184513378038
0.0117482545183
0.00745204936384
0.00471741728448
0.00298482503486
0.00189017577696
0.00119969374973
0.000764796112193
0.000491778799249
0.000321955662006
0.000218905297367
0.000160419217231
0.000133501200682
0.00013132398561
0.000151437836092
0.000194776786631
0.000265192415184
0.000373469566778
0.000564151788483
0.000948275852651
0.00153720188388
5.3448015296e-05
-0.00122268876625
-0.000398629828861
-2545.60993981
2533.13722617
1.27797787043
1.60800776369
1.58349092673
1.38374153721
1.12820766825
0.877033375109
0.65749304126
0.478473519301
0.339430082193
0.235469233729
0.160165076026
0.10708482807
0.0705451208099
0.04590213016
0.0295709505099
0.0189050159977
0.012020582067
0.00761695637025
0.0048184158113
0.00304744457748
0.00192945390699
0.00122457995091
0.000780697857326
0.000502022320522
0.00032862641672
0.000223338232027
0.000163491428261
0.000135810912273
0.000133299674007
0.000153396022097
0.000196928375743
0.000267542827841
0.000375430197998
0.000563848779982
0.00094231874406
0.001530304563
5.83259898462e-05
-0.00121201984295
-0.000381138229259
-2543.17414401
2529.96644912
1.43568026106
1.77617017945
1.72084893399
1.48519356506
1.19977147358
0.926097089552
0.690371084875
0.500033376368
0.353264591005
0.244158691756
0.165513556202
0.11031796812
0.0724709364471
0.0470374917097
0.030237065321
0.0192963016106
0.0122520936813
0.00775561875316
0.00490275082664
0.00309957115357
0.00196215220645
0.00124534108343
0.000794003006615
0.00051061504221
0.000334226115353
0.000227047724467
0.000166036862074
0.000137687374023
0.000134858839703
0.000154889025006
0.000198499629737
0.000269115201976
0.000376258203648
0.000561557157527
0.000932185305584
0.00151585679972
6.63122768302e-05
-0.00119046504132
-0.000358435573611
-2540.77895951
2526.78402944
1.61549883473
1.96163974062
1.86722552441
1.59059424175
1.27273639104
0.975343687759
0.722899323276
0.521056757219
0.3665469562
0.25235933497
0.170465208098
0.113247868246
0.0741755973829
0.0480175489913
0.0307974669164
0.019617450377
0.0124380214081
0.00786512217929
0.00496864505735
0.00314011847011
0.00198760275094
0.00126156292183
0.000804451993924
0.00051739230208
0.000338648599195
0.000229963581137
0.000168007065461
0.000139094779787
0.000135972650484
0.000155892165839
0.000199470461821
0.000269899932238
0.000375968384548
0.000557323182308
0.000917909823643
0.0014937538498
7.79143071795e-05
-0.00115727441103
-0.00033042226134
-2538.42280645
2523.58467463
1.82121501285
2.16615549584
2.02263067469
1.6995274438
1.3466833373
1.024427789
0.754811740281
0.541344940967
0.379132053544
0.25996775779
0.174948286657
0.115826081999
0.0756272342111
0.0488218320635
0.0312392745099
0.0198604882931
0.0125734851251
0.00794249852094
0.0050142950671
0.00316798669877
0.00200512985021
0.00127282626657
0.000811781815535
0.000522186986178
0.000341785939815
0.000232014311716
0.000169352604615
0.000139996506687
0.00013661154736
0.000156380164996
0.000199820686598
0.000269889203328
0.00037458324766
0.000551212137625
0.000899551505601
0.00146387410474
9.36548530388e-05
-0.00111166319437
-0.000297082190083
-2536.10382429
2520.362449
2.05738137636
2.39156962242
2.18687716773
1.81144194541
1.42112047087
1.07296157628
0.785816396602
0.560682712594
0.390864107058
0.266873796486
0.178886910983
0.118001748267
0.0767926434141
0.0494291787308
0.0315492732575
0.0200172937423
0.0126535466209
0.00798476043394
0.00503789285812
0.00318207576179
0.00201405813264
0.00127871185213
0.000815729020832
0.000524831364099
0.000343529584434
0.000233127872045
0.000170023536284
0.000140355437697
0.000136745428673
0.000156327191252
0.000199529870895
0.000269076597137
0.000372133014168
0.000543310191809
0.000877197247325
0.00142606140003
0.00011406671898
-0.0010527735257
-0.000258492921572
-2533.81987709
2517.11071002
2.3295001057
2.63982101695
2.35951366709
1.92563465449
1.49548155449
1.12051528761
0.815596361893
0.578839208083
0.401577376229
0.272961093828
0.182201523757
0.119721954126
0.0776375629415
0.0498179351899
0.0317140544835
0.020079691899
0.0126732711023
0.00798894036642
0.00503765008693
0.00318130013826
0.00201372152986
0.00127880579307
0.000816033032671
0.000525159136357
0.000343771647931
0.000233232484032
0.000169969964576
0.000140134321008
0.000136343876573
0.000155706938555
0.000198577155966
0.000267456560314
0.000368655396793
0.000533726569489
0.000850966120293
0.00138010369494
0.000139684857269
-0.00097961528734
-0.000214834530988
-2531.56856187
2513.82203607
2.64424596552
2.91288862327
2.53973953712
2.04123552369
1.56912638097
1.16661855776
0.843811143691
0.595569059157
0.411097037264
0.278107801009
0.184809449021
0.120932166872
0.0781269949347
0.0499661876421
0.0317201755074
0.0200395611418
0.0126277958765
0.00795213374417
0.00501182470384
0.00316460508608
0.00200347309572
0.00127270552615
0.000812439775398
0.000523007683098
0.000342406326884
0.000232257555078
0.000169142648309
0.000139296184769
0.000135376422094
0.00015449271978
0.000196941064979
0.00026502369519
0.000364195092313
0.000522595956344
0.000821016338066
0.00132570817906
0.000171033763015
-0.000890980259159
-0.000166397493638
-2529.34722037
2510.48814434
3.00974557114
3.21271525975
2.72629707787
2.15719633123
1.64134385743
1.21076265204
0.870098634193
0.610613841093
0.41924025789
0.282187417212
0.186625548684
0.121576735206
0.0782255751923
0.0498520242483
0.0315543384182
0.0198889508844
0.012512405703
0.00787154601256
0.00495874977329
0.003130984104
0.00198269554179
0.00126002619671
0.000804705573146
0.000518220479817
0.000339331428051
0.000230134673179
0.000167493662802
0.000137804800302
0.000133812843755
0.00015265759736
0.000194599305931
0.00026177184903
0.000358802845805
0.000510081024173
0.000787555569731
0.00126247348148
0.000208606892417
-0.000785323231268
-0.000113586582102
-2527.15295401
2507.09979841
3.43592789514
3.54108899213
2.917336055
2.27228662522
1.71135835789
1.25240357144
0.894077584149
0.623703818573
0.425817459778
0.285069764159
0.187562976008
0.12159945802
0.077897987925
0.0494538260641
0.0312035865966
0.0196202098669
0.0123226141272
0.00774454298753
0.00487686413816
0.00307949742487
0.00195081237047
0.00124040738124
0.000792601263538
0.000510649651717
0.000334449994517
0.000226798665014
0.000164977125411
0.000135625184446
0.000131623516126
0.000150174552319
0.000191528567399
0.000257692967651
0.000352533933209
0.000496374841561
0.000750855620143
0.00118986069171
0.000252833461859
-0.000660604077171
-5.69169615376e-05
-2524.98264241
2503.6467049
3.93496510304
3.8994639504
3.11024459166
2.38510166612
1.77833988636
1.29096591932
0.915350602616
0.634559975178
0.430633756787
0.286622089704
0.187534022054
0.12094421764
0.0771094231534
0.0487505847846
0.0306555172456
0.0192261235725
0.0120542498041
0.00756870388497
0.0047647444868
0.00300929125109
0.00190729940649
0.00121352005953
0.000775916464142
0.000500158634979
0.000327672000486
0.000222188715116
0.000161549956337
0.000132724139002
0.000128779791383
0.000147016697114
0.000187704348078
0.00025277568878
0.00034544587983
0.000481702734869
0.000711272480287
0.00110716651317
0.000304026401073
-0.000514086319794
3.00422823651e-06
-2522.83296519
2500.11739982
4.52182810478
4.28869536536
3.30143973182
2.49408934522
1.84141837854
1.32584730013
0.9335076755
0.64289630184
0.433490551063
0.286710291344
0.186451048807
0.119555672709
0.0758260729445
0.0477222442441
0.0298985075964
0.0187000590666
0.0117035466373
0.00734187618995
0.00462113828146
0.00291961739976
0.00185169653974
0.00117907370046
0.00075446391404
0.000486624888506
0.000318916090066
0.00021624951572
0.000157172667577
0.000129070829934
0.000125254417639
0.000143157533835
0.000183100834606
0.000247003671185
0.00033759519933
0.00046632297396
0.000669272546959
0.00101350437672
0.000362303695799
-0.000342091849292
6.55222373719e-05
-2520.70042691
2496.49912598
5.21498800721
4.7086537499
3.48611042123
2.5976060123
1.89970201256
1.3564228692
0.948130199441
0.648422308334
0.434187262787
0.285200247663
0.184227500484
0.117380004278
0.0740156615301
0.0463500618477
0.0289219518996
0.018036115158
0.0112672362543
0.0070622314275
0.00444499694214
0.00280985295919
0.00178361943008
0.0011368233058
0.000728083792557
0.000469942611567
0.000308111331046
0.000208932426253
0.000151810179719
0.00012463738318
0.000121021990298
0.00013857127978
0.000177690884139
0.000240353632256
0.000329032908903
0.000450525363097
0.000625465241424
0.000907802996188
0.000427474303836
-0.000139719657872
0.0001300222478
-2518.58138493
2492.777705
6.03730337552
5.15766953437
3.65790551402
2.69401519158
1.95229854883
1.38204947692
0.95879554805
0.650845709255
0.432523163395
0.281959243342
0.180778982629
0.114365707294
0.071648003305
0.0446169853668
0.0277165058314
0.0172292755004
0.0107426412118
0.0067283207207
0.00423550858191
0.00267951953516
0.00170277089222
0.00108657627215
0.000696647945521
0.000450025397707
0.000295198924948
0.000200196635508
0.000145432637406
0.000119399500809
0.000116059429742
0.000133233247708
0.000171446160842
0.000232793140774
0.000319798612925
0.000434626509227
0.000580640907239
0.000788837139331
0.000498880344389
9.94482940731e-05
0.00019608625685
-2516.4720799
2488.93741046
7.01714440264
5.63174065221
3.80856007259
2.78184866524
1.99833725346
1.40206866883
0.965082234154
0.649875220549
0.428299276937
0.276857472158
0.17602439717
0.110464418626
0.0686955820381
0.0425080400496
0.0262743346187
0.0162755620366
0.0101277671493
0.00633912901922
0.00399212957173
0.00252830162854
0.00160895173189
0.00102819888748
0.000660063879967
0.00042680876611
0.000280133875694
0.000190010284542
0.00013801620671
0.00011333707922
0.000110346483812
0.000127120298695
0.000164337521587
0.000224278203589
0.000309912962641
0.000418960252347
0.000535810506182
0.000655312572415
0.000575191004853
0.000383604566533
0.000263756133157
-2514.36866823
)
;

boundaryField
{
    inout
    {
        type            empty;
    }
    top
    {
        type            calculated;
        value           nonuniform List<scalar> 
41
(
2488.93741046
7.01714440264
5.63174065221
3.80856007259
2.78184866524
1.99833725346
1.40206866883
0.965082234154
0.649875220549
0.428299276937
0.276857472158
0.17602439717
0.110464418626
0.0686955820381
0.0425080400496
0.0262743346187
0.0162755620366
0.0101277671493
0.00633912901922
0.00399212957173
0.00252830162854
0.00160895173189
0.00102819888748
0.000660063879967
0.00042680876611
0.000280133875694
0.000190010284542
0.00013801620671
0.00011333707922
0.000110346483812
0.000127120298695
0.000164337521587
0.000224278203589
0.000309912962641
0.000418960252347
0.000535810506182
0.000655312572415
0.000575191004853
0.000383604566533
0.000263756133157
-2514.36866823
)
;
    }
    bottom
    {
        type            calculated;
        value           nonuniform List<scalar> 
41
(
2622.2765539
0.00719291195369
0.010569006543
0.0122115082697
0.0123459057973
0.0114441494
0.00988351101565
0.00808152730665
0.0063241006303
0.00477280714769
0.00349391085438
0.00249209606118
0.00173829518945
0.00118942073411
0.000800544470717
0.000531309861169
0.000348512743941
0.00022642874533