/*--------------------------------*- C++ -*----------------------------------*\
| =========                 |                                                 |
| \\      /  F ield         | OpenFOAM: The Open Source CFD Toolbox           |
|  \\    /   O peration     | Version:  2112                                  |
|   \\  /    A nd           | Website:  www.openfoam.com                      |
|    \\/     M anipulation  |                                                 |
\*---------------------------------------------------------------------------*/
FoamFile
{
    version     2.0;
    format      ascii;
    arch        "LSB;label=32;scalar=64";
    class       volScalarField;
    location    "0.2";
    object      phiE;
}
// * * * * * * * * * * * * * * * * * * * * * * * * * * * * * * * * * * * * * //

dimensions      [1 2 -3 0 0 -1 0];

internalField   nonuniform List<scalar> 
1681
(
0.993902456239
0.993902456483
0.993902456213
0.993902456378
0.993902456173
0.993902456225
0.993902456052
0.993902456106
0.99390245588
0.993902455935
0.993902455683
0.993902455569
0.99390245538
0.993902455146
0.993902454959
0.993902454746
0.99390245458
0.993902454416
0.993902454286
0.993902454163
0.993902454028
0.993902453934
0.993902453814
0.993902453717
0.993902453711
0.993902453646
0.993902453714
0.99390245375
0.993902453771
0.993902453791
0.993902453701
0.993902453696
0.993902453502
0.993902453494
0.993902453452
0.993902453443
0.993902453491
0.993902453522
0.993902453566
0.993902453628
0.993902453323
0.981707368661
0.981707369433
0.981707368625
0.981707369105
0.981707368488
0.981707368649
0.981707368128
0.981707368294
0.981707367608
0.981707367782
0.98170736703
0.981707366686
0.981707366123
0.981707365426
0.981707364864
0.981707364227
0.981707363729
0.981707363235
0.981707362844
0.981707362477
0.981707362068
0.981707361789
0.981707361431
0.981707361132
0.981707361119
0.981707360926
0.981707361129
0.981707361238
0.9817073613
0.98170736136
0.981707361081
0.981707361071
0.981707360485
0.981707360455
0.981707360332
0.981707360304
0.981707360448
0.981707360528
0.981707360656
0.981707360884
0.981707359964
0.969512281033
0.969512282379
0.969512281043
0.969512281828
0.969512280775
0.969512281048
0.969512280184
0.969512280477
0.969512279312
0.969512279625
0.969512278388
0.969512277816
0.969512276889
0.969512275737
0.969512274805
0.96951227374
0.969512272916
0.969512272086
0.969512271433
0.969512270829
0.969512270135
0.969512269673
0.969512269086
0.969512268567
0.969512268556
0.969512268237
0.969512268568
0.969512268757
0.969512268855
0.969512268959
0.969512268467
0.969512268461
0.969512267476
0.969512267399
0.969512267206
0.969512267159
0.969512267397
0.96951226749
0.969512267681
0.969512268159
0.969512266719
0.957317193439
0.957317195329
0.957317193489
0.957317194575
0.957317193063
0.957317193433
0.957317192242
0.95731719268
0.957317191027
0.957317191501
0.957317189809
0.95731718902
0.957317187746
0.957317186152
0.957317184856
0.957317183359
0.957317182213
0.957317181042
0.957317180119
0.957317179291
0.957317178303
0.95731717765
0.95731717685
0.957317176092
0.957317176086
0.957317175648
0.9573171761
0.957317176375
0.957317176495
0.957317176643
0.95731717591
0.957317175908
0.957317174521
0.957317174356
0.9573171741
0.957317174023
0.957317174361
0.957317174438
0.957317174661
0.957317175329
0.957317173568
0.945122105874
0.94512210827
0.945122105924
0.945122107305
0.945122105338
0.945122105762
0.945122104271
0.945122104873
0.945122102743
0.945122103398
0.945122101294
0.945122100307
0.945122098709
0.945122096689
0.945122095039
0.945122093102
0.945122091638
0.945122090125
0.945122088919
0.945122087879
0.945122086592
0.945122085734
0.945122084735
0.945122083723
0.945122083722
0.945122083172
0.945122083737
0.945122084104
0.945122084226
0.94512208441
0.94512208341
0.945122083397
0.945122081613
0.945122081304
0.945122080986
0.945122080855
0.945122081298
0.945122081353
0.945122081608
0.94512208234
0.945122080438
0.932927018291
0.932927021187
0.932927018296
0.932927019947
0.932927017565
0.932927017985
0.932927016222
0.932927017008
0.932927014432
0.932927015284
0.932927012824
0.932927011666
0.932927009772
0.932927007341
0.932927005349
0.932927002967
0.932927001185
0.932926999335
0.932926997829
0.932926996588
0.932926995003
0.93292699392
0.932926992733
0.932926991459
0.932926991456
0.932926990806
0.932926991467
0.932926991935
0.932926992033
0.932926992237
0.932926990948
0.93292699089
0.932926988723
0.932926988205
0.93292698782
0.932926987599
0.932926988141
0.932926988195
0.932926988488
0.932926989222
0.932926987246
0.920731930668
0.920731934074
0.920731930587
0.920731932455
0.920731929727
0.920731930079
0.920731928074
0.920731929064
0.920731926093
0.920731927154
0.920731924407
0.920731923104
0.920731920953
0.920731918125
0.920731915803
0.920731912975
0.920731910868
0.920731908691
0.92073190687
0.920731905431
0.920731903555
0.920731902221
0.920731900857
0.920731899315
0.920731899303
0.920731898564
0.920731899301
0.920731899876
0.920731899923
0.920731900123
0.920731898524
0.920731898374
0.920731895841
0.920731895047
0.920731894589
0.92073189423
0.920731894846
0.920731894945
0.920731895237
0.920731896029
0.920731893932
0.908536842991
0.908536846905
0.908536842801
0.9085368448
0.908536841811
0.908536842038
0.908536839821
0.908536841028
0.908536837732
0.908536839008
0.908536836055
0.908536834631
0.908536832266
0.908536829058
0.908536826415
0.908536823148
0.908536820706
0.908536818213
0.908536816066
0.908536814425
0.90853681227
0.908536810659
0.908536809121
0.908536807312
0.908536807281
0.908536806466
0.908536807253
0.908536807939
0.908536807908
0.908536808068
0.908536806144
0.908536805841
0.90853680296
0.908536801824
0.908536801289
0.908536800737
0.908536801389
0.9085368016
0.908536801801
0.908536802796
0.908536800472
0.896341755247
0.896341759639
0.896341754943
0.896341756962
0.896341753794
0.896341753851
0.896341751456
0.896341752888
0.896341749352
0.896341750842
0.896341747776
0.896341746248
0.896341743719
0.896341740148
0.896341737189
0.896341733501
0.896341730709
0.896341727915
0.896341725435
0.896341723581
0.896341721157
0.896341719246
0.896341717535
0.89634171546
0.896341715402
0.896341714525
0.896341715328
0.896341716126
0.896341715989
0.896341716065
0.89634171381
0.896341713279
0.896341710067
0.896341708529
0.896341707911
0.896341707115
0.896341707765
0.896341708156
0.896341708157
0.89634170953
0.896341706875
0.884146667428
0.88414667224
0.884146667017
0.884146668936
0.884146665657
0.884146665519
0.884146662982
0.884146664637
0.884146660957
0.884146662651
0.884146659576
0.884146657956
0.884146655312
0.884146651404
0.88414664813
0.884146644046
0.88414664089
0.884146637804
0.88414663499
0.884146632908
0.884146630226
0.884146627994
0.884146626106
0.884146623771
0.884146623673
0.884146622751
0.884146623531
0.884146624435
0.884146624168
0.884146624107
0.884146621519
0.884146620682
0.884146617146
0.884146615155
0.88414661445
0.884146613361
0.884146613984
0.884146614603
0.884146614324
0.884146616214
0.884146613171
0.871951579541
0.87195158469
0.871951579034
0.871951580734
0.871951577396
0.871951577053
0.871951574412
0.871951576279
0.87195157256
0.87195157444
0.871951571462
0.871951569761
0.871951567049
0.871951562835
0.871951559243
0.871951554795
0.871951551263
0.871951547892
0.871951544751
0.871951542418
0.871951539487
0.871951536917
0.871951534847
0.871951532259
0.871951532108
0.871951531158
0.871951531872
0.871951532868
0.871951532449
0.87195153219
0.871951529276
0.871951528051
0.871951524192
0.871951521709
0.871951520904
0.871951519482
0.871951520075
0.871951520933
0.871951520346
0.87195152282
0.871951519394
0.859756491608
0.859756496997
0.859756491003
0.859756492384
0.85975648902
0.859756488476
0.859756485769
0.859756487829
0.859756484179
0.859756486219
0.859756483446
0.859756481673
0.859756478934
0.859756474455
0.859756470538
0.859756465765
0.859756461848
0.859756458195
0.859756454736
0.859756452128
0.859756448954
0.859756446034
0.859756443775
0.859756440941
0.859756440721
0.85975643976
0.859756440365
0.859756441429
0.859756440842
0.859756440314
0.859756437087
0.859756435396
0.859756431204
0.85975642821
0.859756427278
0.859756425496
0.859756426075
0.859756427139
0.859756426278
0.85975642932
0.859756425575
0.847561403656
0.847561409178
0.847561402931
0.847561403922
0.847561400545
0.847561399816
0.847561397075
0.847561399303
0.847561395829
0.847561397999
0.84756139553
0.847561393699
0.847561390965
0.84756138627
0.847561382022
0.847561376964
0.847561372661
0.847561368721
0.847561364958
0.84756136205
0.847561358637
0.847561355357
0.847561352902
0.847561349833
0.847561349522
0.847561348569
0.847561349019
0.847561350118
0.847561349348
0.847561348478
0.847561344957
0.847561342727
0.847561338184
0.84756133468
0.84756133358
0.847561331428
0.847561332018
0.84756133322
0.847561332167
0.847561335695
0.847561331737
0.835366315706
0.835366321254
0.83536631482
0.835366315385
0.83536631199
0.835366311099
0.835366308349
0.835366310714
0.835366307519
0.835366309788
0.835366307707
0.835366305839
0.835366303133
0.835366298278
0.835366293694
0.83536628839
0.835366283707
0.835366279472
0.835366275418
0.835366272189
0.835366268536
0.835366264891
0.835366262234
0.835366258939
0.835366258512
0.835366257582
0.835366257835
0.835366258925
0.835366257964
0.835366256672
0.835366252877
0.835366250049
0.83536624513
0.83536624114
0.835366239813
0.835366237305
0.835366237926
0.835366239184
0.835366238046
0.835366241939
0.835366237895
0.82317122777
0.823171233248
0.823171226674
0.823171226808
0.823171223372
0.823171222349
0.823171219606
0.823171222073
0.823171219251
0.823171221588
0.82317121996
0.823171218085
0.823171215422
0.823171210465
0.823171205546
0.823171200031
0.823171194981
0.823171190439
0.823171186108
0.823171182538
0.823171178642
0.823171174631
0.823171171764
0.823171168258
0.823171167685
0.823171166788
0.823171166807
0.823171167832
0.823171166675
0.823171164883
0.823171160833
0.823171157362
0.823171152032
0.823171147607
0.82317114598
0.823171143154
0.823171143818
0.823171145045
0.823171143936
0.823171148057
0.823171144062
0.810976139853
0.810976145185
0.810976138498
0.810976138229
0.810976134712
0.810976133587
0.810976130862
0.810976133392
0.810976131026
0.810976133404
0.810976132267
0.810976130426
0.81097612781
0.810976122813
0.810976117566
0.810976111869
0.810976106473
0.810976101612
0.810976097015
0.810976093086
0.810976088944
0.810976084566
0.810976081483
0.810976077781
0.810976077028
0.810976076171
0.810976075924
0.81097607682
0.810976075464
0.810976073097
0.810976068806
0.810976064663
0.810976058887
0.810976054094
0.810976052087
0.810976049004
0.810976049703
0.810976050827
0.810976049849
0.810976054066
0.810976050247
0.798781051957
0.798781057099
0.798781050309
0.798781049689
0.798781046033
0.798781044836
0.798781042138
0.798781044691
0.798781042844
0.798781045246
0.798781044613
0.798781042854
0.798781040285
0.798781035304
0.798781029744
0.798781023888
0.798781018173
0.798781012979
0.798781008125
0.798781003825
0.798780999433
0.798780994691
0.798780991383
0.798780987502
0.798780986534
0.798780985712
0.798780985177
0.798780985871
0.798780984317
0.798780981308
0.79878097678
0.798780971959
0.798780965695
0.798780960616
0.798780958149
0.798780954881
0.798780955597
0.79878095656
0.798780955798
0.798780959993
0.798780956465
0.78658596409
0.78658596903
0.786585962133
0.786585961227
0.786585957366
0.786585956127
0.786585953462
0.786585955996
0.786585954714
0.786585957128
0.786585956989
0.786585955365
0.786585952838
0.786585947926
0.786585942075
0.786585936075
0.786585930071
0.786585924536
0.786585919429
0.786585914747
0.786585910101
0.786585905
0.786585901459
0.78658589742
0.786585896197
0.7865858954
0.78658589456
0.786585894974
0.786585893221
0.786585889515
0.786585884747
0.786585879259
0.786585872466
0.786585867192
0.786585864192
0.786585860814
0.786585861519
0.78658586228
0.786585861799
0.786585865873
0.786585862727
0.774390876264
0.774390881025
0.774390874
0.774390872882
0.774390868746
0.774390867492
0.77439086487
0.774390867343
0.77439086665
0.774390869075
0.774390869396
0.774390867962
0.774390865468
0.77439086067
0.774390854557
0.774390848424
0.774390842163
0.774390836279
0.774390830922
0.774390825852
0.774390820948
0.774390815496
0.774390811712
0.774390807535
0.77439080602
0.774390805223
0.774390804073
0.774390804123
0.774390802172
0.774390797731
0.774390792703
0.774390786585
0.774390779221
0.774390773843
0.774390770252
0.774390766832
0.774390767494
0.774390768023
0.774390767869
0.774390771747
0.774390769049
0.762195788498
0.762195793127
0.762195785939
0.762195784688
0.76219578021
0.762195778966
0.762195776398
0.762195778769
0.762195778667
0.762195781107
0.762195781838
0.762195780648
0.762195778178
0.762195773527
0.762195767191
0.762195760926
0.762195754442
0.762195748207
0.762195742599
0.762195737138
0.762195731974
0.76219572618
0.76219572214
0.762195717846
0.762195716004
0.762195715175
0.762195713714
0.762195713319
0.762195711165
0.762195705967
0.762195700651
0.762195693957
0.762195685989
0.762195680591
0.762195676371
0.762195672961
0.762195673553
0.762195673831
0.762195674034
0.762195677655
0.762195675446
0.750000700808
0.750000705369
0.750000697977
0.750000696668
0.750000691793
0.750000690581
0.750000688078
0.750000690312
0.75000069078
0.750000693245
0.750000694325
0.750000693423
0.750000690971
0.75000068649
0.75000067997
0.750000673575
0.750000666898
0.750000660315
0.750000654455
0.7500006486
0.750000643173
0.750000637051
0.750000632742
0.75000062835
0.750000626151
0.750000625244
0.750000623478
0.750000622559
0.750000620194
0.75000061424
0.750000608594
0.750000601398
0.750000592796
0.750000587452
0.750000582589
0.750000579222
0.750000579725
0.75000057974
0.750000580314
0.750000583636
0.750000581927
0.737805613206
0.737805617772
0.737805610129
0.737805608834
0.737805603525
0.737805602363
0.737805599933
0.737805602002
0.737805602998
0.737805605501
0.737805606862
0.737805606282
0.737805603844
0.737805599543
0.737805592882
0.737805586354
0.737805579513
0.73780557259
0.737805566473
0.737805560227
0.737805554534
0.7378055481
0.737805543506
0.737805539032
0.737805536453
0.737805535415
0.737805533354
0.737805531839
0.737805529246
0.737805522555
0.737805516533
0.737805508922
0.737805499669
0.737805494437
0.737805488941
0.737805485632
0.737805486033
0.737805485783
0.737805486728
0.737805489722
0.737805488498
0.725610525698
0.725610530339
0.725610522406
0.725610521189
0.725610515429
0.725610514336
0.725610511977
0.725610513859
0.725610515323
0.725610517877
0.725610519452
0.725610519214
0.725610516786
0.725610512666
0.725610505908
0.725610499243
0.72561049226
0.72561048501
0.725610478635
0.725610471999
0.725610466038
0.725610459312
0.725610454416
0.72561044987
0.725610446896
0.725610445665
0.725610443319
0.725610441148
0.725610438304
0.725610430916
0.725610424466
0.725610416535
0.725610406628
0.72561040155
0.725610395451
0.725610392201
0.725610392497
0.725610391988
0.725610393286
0.725610395938
0.725610395157
0.713415438281
0.713415443064
0.713415434815
0.713415433731
0.713415427523
0.713415426513
0.713415424211
0.7134154259
0.713415427755
0.713415430369
0.713415432093
0.7134154322
0.713415429783
0.713415425834
0.713415419019
0.713415412215
0.713415405109
0.713415397546
0.71341539091
0.713415383891
0.713415377659
0.713415370663
0.713415365449
0.713415360834
0.713415357459
0.713415355968
0.713415353347
0.713415350474
0.713415347345
0.713415339317
0.71341533239
0.713415324235
0.713415313686
0.713415308787
0.713415302134
0.713415298935
0.713415299123
0.713415298373
0.713415299988
0.713415302296
0.713415301899
0.701220350949
0.701220355931
0.701220347364
0.701220346453
0.701220339822
0.701220338908
0.701220336634
0.701220338133
0.701220340289
0.701220342969
0.701220344783
0.701220345221
0.701220342817
0.70122033902
0.701220332186
0.70122032524
0.701220318024
0.701220310165
0.70122030327
0.701220295874
0.701220289367
0.701220282125
0.70122027658
0.701220271889
0.701220268115
0.701220266297
0.701220263405
0.701220259801
0.701220256349
0.701220247748
0.701220240304
0.701220232014
0.701220220855
0.70122021614
0.701220208995
0.701220205835
0.701220205912
0.701220204948
0.701220206828
0.701220208802
0.701220208713
0.689025263696
0.68902526892
0.689025260066
0.689025259347
0.689025252339
0.689025251525
0.689025249242
0.689025250563
0.689025252924
0.689025255668
0.689025257519
0.689025258257
0.689025255868
0.6890252522
0.689025245377
0.68902523829
0.689025230971
0.689025222835
0.689025215683
0.689025207922
0.689025201133
0.689025193669
0.689025187782
0.689025183001
0.689025178836
0.689025176627
0.689025173459
0.689025169117
0.689025165297
0.689025156201
0.689025148211
0.689025139861
0.689025128144
0.6890251236
0.689025116035
0.6890251129
0.689025112859
0.689025111716
0.689025113791
0.689025115452
0.68902511559
0.676830176514
0.676830182011
0.676830172937
0.676830172405
0.676830165087
0.676830164368
0.67683016203
0.676830163191
0.676830165661
0.67683016846
0.676830170301
0.676830171293
0.676830168921
0.676830165349
0.676830158562
0.676830151339
0.676830143918
0.676830135525
0.676830128118
0.676830120006
0.676830112928
0.676830105266
0.676830099031
0.676830094135
0.676830089595
0.676830086934
0.67683008348
0.676830078409
0.676830074177
0.676830064663
0.67683005612
0.676830047765
0.676830035561
0.676830031159
0.67683002325
0.676830020128
0.676830019954
0.676830018672
0.67683002086
0.676830022237
0.676830022518
0.664635089401
0.664635095185
0.664635085994
0.664635085612
0.664635078074
0.664635077428
0.664635074994
0.664635076014
0.664635078499
0.664635081337
0.664635083126
0.664635084313
0.664635081958
0.664635078449
0.664635071714
0.66463506436
0.664635056838
0.664635048203
0.664635040548
0.664635032101
0.664635024725
0.664635016889
0.664635010306
0.66463500526
0.664635000362
0.6646349972
0.664634993437
0.664634987668
0.664634982979
0.664634973126
0.664634964043
0.664634955714
0.664634943112
0.66463493881
0.664634930633
0.664634927513
0.664634927182
0.664634925801
0.664634928019
0.664634929145
0.664634929487
0.652440002355
0.652440008419
0.652439999249
0.652439998951
0.6524399913
0.652439990691
0.652439988129
0.652439989022
0.652439991437
0.652439994288
0.65243999599
0.652439997302
0.65243999496
0.652439991477
0.652439984802
0.652439977327
0.652439969698
0.652439960837
0.652439952937
0.652439944179
0.652439936495
0.652439928502
0.652439921578
0.65243991634
0.652439911104
0.652439907402
0.6524399033
0.652439896877
0.652439891696
0.652439881575
0.652439871986
0.652439863695
0.652439850796
0.652439846538
0.652439838172
0.65243983504
0.652439834524
0.652439833082
0.652439835249
0.652439836157
0.65243983648
0.64024491537
0.64024492169
0.640244912699
0.640244912391
0.64024490475
0.640244904122
0.640244901416
0.640244902188
0.640244904458
0.64024490729
0.640244908871
0.640244910233
0.640244907895
0.6402449044
0.640244897786
0.640244890199
0.640244882458
0.640244873385
0.640244865245
0.640244856198
0.640244848198
0.640244840062
0.640244832809
0.640244827334
0.640244821772
0.640244817508
0.640244813029
0.640244806011
0.640244800311
0.640244789983
0.640244779946
0.640244771681
0.640244758598
0.640244754322
0.64024474584
0.64024474268
0.64024474195
0.64024474048
0.640244742526
0.640244743247
0.640244743473
0.628049828433
0.628049834965
0.628049826314
0.628049825892
0.628049818381
0.628049817668
0.62804981482
0.628049815462
0.628049817529
0.6280498203
0.628049821731
0.628049823063
0.628049820715
0.62804981717
0.628049810609
0.628049802921
0.62804979506
0.628049785786
0.628049777409
0.628049768101
0.628049759778
0.628049751504
0.628049743941
0.62804973818
0.628049732303
0.628049727467
0.62804972257
0.628049715022
0.628049708792
0.628049698307
0.628049687896
0.628049679629
0.628049666477
0.62804966212
0.628049653592
0.628049650387
0.628049649413
0.628049647942
0.628049649817
0.628049650371
0.628049650431
0.615854741515
0.615854748202
0.615854740029
0.615854739395
0.615854732123
0.615854731257
0.615854728281
0.615854728772
0.615854730586
0.615854733247
0.615854734501
0.615854735723
0.615854733346
0.615854729713
0.615854723192
0.615854715411
0.615854707424
0.61585469796
0.615854689343
0.615854679802
0.615854671155
0.61585466274
0.61585465489
0.615854648797
0.615854642606
0.615854637203
0.615854631849
0.615854623838
0.61585461708
0.615854606478
0.615854595776
0.615854587474
0.615854574368
0.615854569865
0.615854561358
0.61585455809
0.615854556852
0.615854555399
0.615854557069
0.615854557473
0.615854557303
0.603659654566
0.60365966135
0.603659653741
0.603659652827
0.603659645872
0.603659644791
0.603659641712
0.603659642019
0.603659643542
0.603659646037
0.603659647086
0.603659648122
0.60365964569
0.603659641934
0.603659635431
0.603659627565
0.603659619442
0.603659609798
0.603659600938
0.603659591191
0.603659582222
0.603659573656
0.603659565541
0.603659559079
0.603659552566
0.603659546615
0.603659540769
0.603659532358
0.603659525092
0.603659514404
0.603659503499
0.603659495124
0.603659482172
0.603659477467
0.603659469043
0.603659465694
0.603659464186
0.603659462761
0.603659464215
0.603659464481
0.603659464031
0.591464567512
0.591464574339
0.591464567313
0.591464566094
0.591464559498
0.591464558155
0.591464555
0.591464555083
0.591464556282
0.591464558546
0.591464559365
0.59146456014
0.591464557623
0.59146455371
0.5914645472
0.591464539251
0.591464530984
0.591464521171
0.59146451206
0.591464502131
0.591464492849
0.591464484113
0.591464475756
0.591464468894
0.591464462045
0.591464455571
0.591464449211
0.591464440459
0.591464432716
0.591464421965
0.591464410943
0.591464402464
0.591464389765
0.591464384811
0.59146437653
0.591464373088
0.591464371319
0.591464369925
0.591464371166
0.591464371314
0.591464370552
0.579269480261
0.579269487076
0.579269480586
0.579269479081
0.579269472849
0.579269471213
0.579269468007
0.579269467821
0.579269468666
0.579269470629
0.579269471191
0.579269471637
0.579269468998
0.579269464897
0.579269458352
0.579269450318
0.579269441896
0.579269431924
0.579269422552
0.579269412458
0.57926940288
0.579269393952
0.579269385367
0.579269378087
0.579269370885
0.579269363918
0.579269357035
0.579269347992
0.57926933981
0.579269329022
0.579269317957
0.579269309353
0.579269296999
0.579269291761
0.579269283681
0.579269280139
0.57926927814
0.579269276774
0.579269277815
0.579269277883
0.579269276801
0.567074392708
0.567074399429
0.567074393397
0.567074391639
0.567074385758
0.567074383806
0.567074380564
0.567074380066
0.567074380526
0.567074382112
0.567074382386
0.56707438244
0.567074379639
0.567074375318
0.567074368708
0.567074360583
0.56707435199
0.567074341873
0.567074332227
0.567074321979
0.567074312125
0.567074302979
0.567074294176
0.567074286474
0.567074278899
0.567074271469
0.567074264071
0.567074254778
0.567074246202
0.567074235403
0.567074224361
0.567074215622
0.567074203696
0.567074198154
0.567074190334
0.567074186696
0.567074184516
0.567074183173
0.567074184033
0.567074184084
0.567074182704
0.554879304756
0.554879311212
0.554879305578
0.554879303583
0.554879298033
0.554879295735
0.554879292462
0.554879291608
0.554879291651
0.55487929278
0.554879292733
0.554879292335
0.554879289325
0.554879284756
0.554879278049
0.554879269821
0.554879261037
0.554879250787
0.554879240857
0.554879230454
0.554879220349
0.554879210961
0.554879201938
0.55487919382
0.55487918586
0.554879177995
0.554879170102
0.554879160597
0.554879151668
0.554879140891
0.554879129928
0.554879121058
0.55487910964
0.554879103793
0.554879096293
0.554879092574
0.554879090277
0.554879088962
0.554879089661
0.554879089774
0.554879088169
0.542684216323
0.542684222173
0.542684216948
0.542684214691
0.542684209457
0.542684206766
0.542684203444
0.542684202192
0.542684201779
0.542684202368
0.542684201959
0.542684201056
0.542684197786
0.542684192935
0.5426841861
0.542684177751
0.542684168751
0.54268415838
0.542684148157
0.542684137586
0.542684127254
0.542684117606
0.542684108354
0.542684099836
0.542684091486
0.542684083208
0.542684074853
0.542684065173
0.542684055928
0.542684045215
0.542684034381
0.542684025395
0.542684014566
0.542684008433
0.542684001319
0.542683997547
0.542683995209
0.542683993945
0.542683994499
0.542683994759
0.542683993081
0.530489127353
0.530489131991
0.530489127279
0.53048912471
0.530489119782
0.530489116633
0.530489113218
0.530489111519
0.530489110604
0.530489110563
0.530489109748
0.530489108286
0.530489104698
0.530489099528
0.530489092535
0.530489084045
0.530489074792
0.53048906431
0.530489053789
0.530489043027
0.530489032486
0.530489022571
0.530489013075
0.530489004175
0.530488995445
0.530488986772
0.530488977995
0.53048896818
0.53048895865
0.530488948052
0.530488937402
0.530488928324
0.530488918172
0.530488911793
0.530488905138
0.530488901356
0.530488899061
0.530488897896
0.530488898326
0.530488898798
0.530488897323
0.518294037807
0.51829404031
0.518294036244
0.518294033355
0.518294028724
0.518294025036
0.518294021453
0.518294019247
0.518294017772
0.518294017006
0.518294015728
0.518294013658
0.518294009687
0.518294004152
0.518293996966
0.518293988314
0.518293978765
0.518293968172
0.518293957353
0.518293946365
0.518293935628
0.518293925447
0.518293915692
0.518293906431
0.518293897342
0.518293888293
0.518293879131
0.51829386923
0.518293859447
0.518293849019
0.518293838623
0.518293829485
0.518293820109
0.518293813551
0.518293807438
0.518293803711
0.518293801541
0.518293800556
0.518293800891
0.518293801612
0.518293800779
0.506098947635
0.506098946781
0.506098943324
0.506098940128
0.506098935778
0.506098931463
0.506098927604
0.506098924816
0.506098922703
0.506098921104
0.506098919295
0.506098916566
0.506098912136
0.506098906175
0.506098898759
0.506098889925
0.506098880027
0.506098869308
0.506098858197
0.506098846947
0.506098836009
0.506098825575
0.506098815556
0.506098805947
0.506098796531
0.506098787132
0.506098777619
0.506098767691
0.506098757692
0.506098747494
0.506098737444
0.50609872829
0.506098719805
0.506098713167
0.50609870769
0.506098704113
0.506098702153
0.506098701449
0.506098701736
0.506098702725
0.506098703142
)
;

boundaryField
{
    inout
    {
        type            empty;
    }
    top
    {
        type            fixedValue;
        value           nonuniform List<scalar> 
41
(
0.500001404347
0.500001401815
0.500001398613
0.500001395293
0.500001391141
0.500001386551
0.50000138261
0.500001379621
0.500001377291
0.500001375364
0.500001373394
0.500001370428
0.500001365826
0.500001359686
0.500001352189
0.500001343295
0.500001333222
0.500001322449
0.500001311203
0.500001299809
0.500001288765
0.500001278208
0.500001268046
0.500001258253
0.50000124867
0.500001239078
0.500001229363
0.500001219397
0.50000120923
0.500001199081
0.500001189136
0.500001179853
0.500001171728
0.500001164939
0.50000115968
0.500001156089
0.500001154154
0.500001153544
0.500001153769
0.500001154871
0.500001156287
)
;
    }
    bottom
    {
        type            fixedValue;
        value           uniform 1;
    }
    frontback
    {
        type            empty;
    }
}


// ************************************************************************* //
