/*--------------------------------*- C++ -*----------------------------------*\
| =========                 |                                                 |
| \\      /  F ield         | OpenFOAM: The Open Source CFD Toolbox           |
|  \\    /   O peration     | Version:  2112                                  |
|   \\  /    A nd           | Website:  www.openfoam.com                      |
|    \\/     M anipulation  |                                                 |
\*---------------------------------------------------------------------------*/
FoamFile
{
    version     2.0;
    format      ascii;
    arch        "LSB;label=32;scalar=64";
    class       volScalarField;
    location    "0.2";
    object      T;
}
// * * * * * * * * * * * * * * * * * * * * * * * * * * * * * * * * * * * * * //

dimensions      [0 0 0 1 0 0 0];

internalField   nonuniform List<scalar> 
1681
(
319.78905798
319.789609869
319.790614162
319.79189147
319.793238774
319.794534778
319.795684735
319.79664563
319.797411845
319.798000592
319.798439578
319.798758926
319.798986569
319.799146144
319.799256473
319.799331904
319.79938301
319.799417388
319.799440384
319.799455701
319.799465871
319.799472609
319.799477069
319.799480022
319.799481984
319.799483298
319.799484198
319.799484842
319.799485342
319.799485785
319.799486247
319.799486804
319.799487558
319.799488669
319.79949044
319.799493408
319.799497996
319.799502596
319.79950092
319.799500131
319.799497661
319.367272732
319.368935489
319.371957171
319.375799977
319.379852668
319.383749141
319.387205281
319.390092343
319.392393926
319.394162085
319.395480275
319.396439111
319.397122547
319.397601598
319.397932803
319.398159237
319.398312653
319.398415852
319.398484886
319.398530868
319.3985614
319.39858163
319.398595019
319.398603885
319.398609775
319.398613722
319.398616424
319.398618356
319.398619857
319.398621188
319.398622572
319.398624244
319.398626505
319.398629834
319.398635138
319.398644051
319.398657909
319.398671966
319.398666526
319.39866384
319.398656804
318.945782892
318.948577005
318.953643403
318.96008458
318.966874788
318.97339712
318.979178236
318.984004576
318.98785032
318.990803625
318.993004706
318.994605387
318.995746129
318.996545639
318.997098362
318.997476229
318.997732241
318.997904459
318.998019665
318.998096406
318.998147364
318.998181129
318.998203479
318.998218278
318.998228111
318.998234701
318.99823921
318.998242435
318.998244941
318.99824716
318.998249466
318.998252252
318.998256016
318.998261551
318.998270368
318.998285239
318.998308608
318.998332801
318.99832252
318.998317047
318.998306373
318.524782186
318.528740157
318.53589916
318.544993993
318.554575047
318.563765564
318.571902933
318.578690338
318.584094824
318.588242776
318.59133285
318.593579278
318.59517983
318.59630142
318.597076726
318.597606733
318.597965819
318.59820738
318.598368982
318.598476634
318.598548124
318.598595499
318.59862686
318.598647629
318.598661427
318.598670676
318.598677005
318.59868153
318.598685044
318.598688153
318.598691382
318.598695278
318.598700539
318.598708265
318.598720563
318.598741391
318.598774506
318.598809591
318.598793257
318.598783969
318.598770399
318.104459213
318.109625578
318.11894651
318.1307733
318.143219753
318.155137729
318.165675034
318.17445385
318.181437344
318.186793121
318.190780637
318.193678209
318.195742031
318.197187941
318.198187298
318.198870421
318.19933324
318.199644593
318.199852898
318.199991675
318.200083845
318.20014493
318.200185372
318.200212158
318.200229956
318.200241886
318.20025005
318.200255885
318.200260413
318.200264415
318.200268567
318.200273571
318.200280318
318.200290214
318.200305954
318.200332717
318.200375763
318.200422469
318.200398906
318.200384873
318.200368913
317.684995528
317.691427425
317.703001796
317.717662602
317.733070409
317.747792084
317.760785299
317.771594278
317.780182572
317.786762903
317.791658566
317.795214105
317.797745566
317.79951862
317.800743879
317.80158135
317.802148731
317.802530441
317.802785837
317.802956007
317.803069041
317.803143966
317.803193577
317.803226442
317.803248281
317.803262921
317.803272938
317.803280095
317.803285645
317.803290544
317.803295618
317.803301725
317.803309949
317.803321989
317.803341121
317.803373774
317.803426874
317.803485855
317.803453993
317.803434495
317.803416473
317.266563785
317.274331831
317.288274262
317.305895773
317.324382603
317.342001199
317.35751843
317.370404514
317.380628729
317.388453734
317.394270379
317.398492048
317.401496365
317.403599932
317.405053298
317.406046582
317.406719512
317.407172251
317.407475202
317.407677084
317.407811204
317.407900121
317.407959008
317.407998024
317.408023954
317.408041338
317.408053231
317.408061726
317.408068307
317.408074106
317.408080102
317.408087307
317.408096994
317.408111148
317.408133613
317.408172087
317.408235294
317.408307091
317.408266014
317.408240554
317.408220675
316.849325889
316.858515294
316.874964705
316.895699253
316.917404895
316.938030615
316.956151894
316.97116995
316.983066287
316.992159272
316.998911716
317.003808912
317.007292072
317.009730011
317.011414008
317.012564781
317.01334439
317.013868928
317.014219962
317.014453922
317.014609382
317.014712467
317.014780751
317.014826002
317.014856081
317.014876247
317.014890043
317.014899892
317.014907513
317.014914218
317.014921136
317.014929432
317.014940565
317.0149568
317.01498253
317.015026731
317.015100023
317.01518505
317.015134005
317.015102285
317.015080671
316.433431143
316.444143044
316.463264145
316.487290882
316.512377732
316.53613774
316.556954758
316.574167242
316.587776674
316.598163888
316.60586875
316.61145197
316.615420645
316.618197246
316.620114674
316.621424794
316.622312332
316.622909523
316.623309227
316.623575671
316.623752752
316.623870201
316.623948017
316.623999596
316.624033888
316.624056881
316.624072608
316.62408383
316.624092504
316.62410012
316.624107958
316.624117337
316.624129898
316.624148175
316.624177093
316.624226901
316.624310182
316.624408711
316.624347115
316.624308992
316.624285707
316.019014404
316.031367446
316.053352569
316.080878821
316.109532421
316.136570778
316.160186542
316.179663097
316.195031008
316.206741355
316.215416838
316.221697531
316.226158969
316.229278877
316.231432764
316.232904236
316.233901054
316.23457182
316.235020829
316.235320197
316.235519204
316.235651228
316.235738724
316.235796732
316.235835306
316.235861173
316.235878864
316.23589148
316.235901218
316.23590975
316.235918508
316.23592896
316.235942929
316.235963204
316.235995222
316.236050492
316.236143593
316.236255747
316.236183182
316.236138626
316.236113698
315.606194252
315.620326455
315.645397759
315.676660563
315.709090179
315.739567721
315.766096131
315.787913101
315.805088855
315.818153559
315.827819207
315.834809595
315.839771498
315.843239633
315.845633174
315.847268115
315.848375637
315.849120949
315.849619933
315.849952689
315.850173946
315.85032077
315.8504181
315.850482645
315.850525575
315.850554367
315.850574055
315.850588087
315.850598903
315.850608356
315.850618032
315.850629547
315.8506449
315.850667126
315.850702147
315.850762707
315.850865385
315.850991141
315.850907342
315.850856405
315.850829841
315.195071176
315.211142133
315.23955422
315.274822064
315.311261279
315.345355424
315.374920744
315.399160597
315.418197043
315.432649261
315.443325672
315.451038555
315.45650894
315.4603304
315.462966897
315.464767485
315.465987179
315.466808038
315.467357689
315.467724314
315.467968155
315.468130011
315.468237339
315.468308533
315.468355896
315.468387664
315.468409385
315.468424855
315.468436763
315.468447143
315.468457734
315.468470301
315.468487011
315.468511135
315.468549052
315.468614705
315.468726647
315.468865838
315.468770684
315.468713474
315.468685273
314.785725757
314.803919246
314.835962238
314.875537009
314.916244307
314.954148753
314.986884969
315.013635624
315.034588524
315.050462905
315.062171417
315.070619943
315.076606988
315.080786939
315.083669724
315.085638157
315.086971497
315.087868913
315.088469927
315.088870906
315.08913767
315.089314797
315.089432285
315.089510243
315.089562118
315.089596917
315.089620707
315.089637638
315.08965065
315.089661963
315.089673467
315.089687072
315.08970511
315.089731074
315.08977177
315.089842294
315.089963119
315.090115439
315.090008939
315.089945607
315.089915772
314.378216854
314.398743932
314.434747069
314.478966206
314.524225523
314.566149823
314.602199863
314.631553908
314.654481285
314.671813481
314.684575809
314.693773224
314.700285092
314.704828654
314.707961008
314.71009944
314.711547875
314.712522837
314.713175901
314.713611713
314.713901736
314.714094366
314.714222181
314.714307016
314.714363482
314.714401365
314.714427259
314.714445675
314.714459804
314.714472054
314.714484467
314.714499096
314.714518431
314.714546172
314.71458952
314.714664666
314.714793932
314.714958944
314.714841229
314.714771956
314.714740503
313.972579756
313.995682452
314.036018277
314.085257143
314.135378351
314.181547324
314.221062127
314.253115914
314.278077316
314.296903426
314.310741272
314.320700644
314.32774529
314.3326574
314.336042465
314.33835295
314.339917855
314.340971305
314.341677074
314.342148178
314.342461782
314.342670145
314.342808444
314.342900267
314.3429614
314.343002419
314.343030453
314.343050376
314.343065636
314.343078826
314.343092143
314.343107779
314.343128377
314.343157829
314.343203693
314.343283189
314.34342039
314.343597535
314.343468849
314.343393846
314.343360814
313.568824288
313.594780008
313.639869236
313.694543702
313.749862984
313.800515934
313.843653335
313.878505948
313.905561628
313.925917586
313.940852198
313.95158611
313.959171074
313.964456343
313.96809702
313.970581441
313.972264077
313.973396879
313.974155955
313.974662777
313.975000263
313.975224569
313.975373503
313.975472419
313.975538292
313.975582498
313.975612703
313.975634155
313.975650556
313.97566469
313.975678904
313.97569553
313.975717354
313.975748445
313.975796679
313.97588023
313.976024805
313.976213414
313.976074104
313.975993606
313.975959065
313.166932837
313.19605965
313.246376815
313.306946039
313.36782611
313.423215809
313.470139234
313.507891318
313.53710131
313.559022217
313.575073914
313.586594132
313.594726304
313.600388861
313.604287705
313.606947702
313.608749162
313.609962068
313.610774979
313.611317892
313.611679528
313.61191997
313.612079673
313.612185777
313.612256456
313.612303894
313.612336302
313.612359301
313.612376853
313.612391932
313.612407036
313.612424632
313.612447642
313.612480296
313.612530747
313.612618035
313.612769371
313.61296867
313.612819184
313.612733455
313.612697511
312.76685826
312.799521253
312.855601261
312.92257066
312.989400771
313.049792161
313.100669098
313.141421536
313.172844646
313.196364031
313.213551685
313.225868798
313.234554176
313.240597496
313.244756596
313.247593488
313.249514644
313.250808256
313.251675428
313.252254741
313.25264075
313.252897488
313.253068076
313.253181451
313.253256994
313.253307702
313.25334234
313.253366902
313.253385612
313.253401637
313.253417621
313.253436164
313.253460319
313.253494456
313.253546962
313.25363765
313.253795085
313.254004208
313.253845089
313.253754425
313.253717225
312.368521631
312.405140574
312.467586312
312.541510682
312.614706337
312.680374907
312.735375137
312.779227569
312.812920262
312.838069286
312.856409764
312.869532802
312.878776221
312.885202943
312.889623802
312.892638497
312.894679943
312.896054673
312.896976407
312.897592342
312.89800289
312.898276046
312.898457611
312.898578321
312.898658774
312.898712786
312.898749674
312.898775811
312.898795685
312.898812652
312.898829506
312.898848972
312.898874226
312.898909762
312.898964155
312.899057888
312.899220715
312.899438715
312.899270598
312.899175328
312.899137064
311.971809763
312.012868407
312.082359569
312.163846315
312.24384861
312.315078397
312.374371957
312.421421136
312.457436324
312.484242926
312.503750495
312.517686511
312.527491364
312.534303098
312.538986494
312.542179405
312.544341393
312.545797421
312.54677386
312.547426535
312.547861717
312.548151369
312.548343968
312.548472058
312.548557453
312.54861479
312.548653943
312.548681663
312.548702702
312.548720607
312.548738316
312.54875868
312.548784986
312.548821833
312.548877939
312.548974344
312.54914182
312.549367673
312.549191286
312.549091778
312.549052688
311.576572452
311.622629829
311.699933177
311.789645573
311.876920055
311.954001203
312.017756065
312.06809405
312.106479781
312.13496776
312.155653452
312.170407092
312.180775029
312.187972148
312.192918
312.196288943
312.198571317
312.200108549
312.20113965
312.201829057
312.202288885
312.202595051
312.202798705
312.202934193
312.203024545
312.203085219
312.203126643
312.203155949
312.203178151
312.203196985
312.203215534
312.203236765
312.203264073
312.203302141
312.203359779
312.203458472
312.203629819
312.203862437
312.2036786
312.203575262
312.203535631
311.182619344
311.234323576
311.320304853
311.418965231
311.514000152
311.597225977
311.665605427
311.719317597
311.760115658
311.790303699
311.812174646
311.827747688
311.838678302
311.846259731
311.851466948
311.855015043
311.857417174
311.859035192
311.860120693
311.860846677
311.861331062
311.861653696
311.861868381
311.862011256
311.86210656
311.862170567
311.86221426
311.862245146
311.862268504
311.862288256
311.862307625
311.862329693
311.862357949
311.862397145
311.862456133
311.862556715
311.862731126
311.862969364
311.862778989
311.862672279
311.862632435
310.789716327
310.847821567
310.943459353
311.05185206
311.155155865
311.244819369
311.317979066
311.375141974
311.418386391
311.450287051
311.473345787
311.489736667
311.501227169
311.50919016
311.514656486
311.518380056
311.520900767
311.522598781
311.52373817
311.524500405
311.525009146
311.525348123
311.525573763
311.525723978
311.525824205
311.525891526
311.525937474
311.52596993
311.525994432
311.526015085
311.526035252
311.526058123
311.526087271
311.526127499
311.526187651
311.526289718
311.526466359
311.526709026
311.52651312
311.526403538
311.526363857
310.397581333
310.462968634
310.569370438
310.688344355
310.800442236
310.896831997
310.974916707
311.035595768
311.081311242
311.114929881
311.139173624
311.156376941
311.168421824
311.176761724
311.182483588
311.186380046
311.189017542
311.190794341
311.19198682
311.192784788
311.193317552
311.193672659
311.193909119
311.194066588
311.194171681
311.19424228
311.194290457
311.194324463
311.194350089
311.194371625
311.194392563
311.194416198
311.194446182
311.194487343
311.194548471
311.194651612
311.194829634
311.195075496
311.194875161
311.194763259
311.194724153
310.00587937
310.079582516
310.198003476
310.328473778
310.449903077
310.553298467
310.636438474
310.700685509
310.748885768
310.784219457
310.809639363
310.827645384
310.840236079
310.848946098
310.854918448
310.858984191
310.861735981
310.863589883
310.864834333
310.8656673
310.866223608
310.866594535
310.866841613
310.867006205
310.867116079
310.867189898
310.867240263
310.867275788
310.867302514
310.867324906
310.867346585
310.867370945
310.867401702
310.867443696
310.867505614
310.867609417
310.867787956
310.868035744
310.867832183
310.867718558
310.867680477
309.614216607
309.697454221
309.829318788
309.972267541
310.103571765
310.214237446
310.302544635
310.370395275
310.421081384
310.458117782
310.484698204
310.503492346
310.516616877
310.525687852
310.531903996
310.536134297
310.538997122
310.540925921
310.542220868
310.54308786
310.543667071
310.544053397
310.544310818
310.544482351
310.544596886
310.544673844
310.544726342
310.544763346
310.544791139
310.544814355
310.544836742
310.544861781
310.544893247
310.544935974
310.544998496
310.54510255
310.545280734
310.545529152
310.545323668
310.545208965
310.545172388
309.222133251
309.316348877
309.463275931
309.619750943
309.761472117
309.879651764
309.973215406
310.044686395
310.097845025
310.13656125
310.164278975
310.183841306
310.197483946
310.206904105
310.21335555
310.217744446
310.220714203
310.222715119
310.224058703
310.224958481
310.225559776
310.225960961
310.226228367
310.226406605
310.226525644
310.226605636
310.226660195
310.226698624
310.226727442
310.226751447
310.226774501
310.22680017
310.226832278
310.226875636
310.226938581
310.22704248
310.227219435
310.227467162
310.227261166
310.22714607
310.227111498
308.829094899
308.936007276
309.099839124
309.270950263
309.423619306
309.549528561
309.648410822
309.723497233
309.779098913
309.819460418
309.848283932
309.868588665
309.882729594
309.892484328
309.899160623
309.903700809
309.906772481
309.908842114
309.91023205
309.911163089
309.911785455
309.912200827
309.912477773
309.912662421
309.912785766
309.912868658
309.912925186
309.912964976
309.912994769
309.913019517
309.913043194
309.913069441
309.913102121
309.913146007
309.913209197
309.913312545
309.913487403
309.913733099
309.913528108
309.913413341
309.91338129
308.434481963
308.556148346
308.738984066
308.925895995
309.090020801
309.223839453
309.328070679
309.406743087
309.464740478
309.506699941
309.536588695
309.557603706
309.572218686
309.582290322
309.589178912
309.593861641
309.597029226
309.599163504
309.600597053
309.601557523
309.602199738
309.602628484
309.60291443
309.603105126
309.603232536
309.603318167
309.603376553
309.603417624
309.603448331
309.603473771
309.60349802
309.603524788
309.603557966
309.603602276
309.603665541
309.603767956
309.603939859
309.604182166
309.60397981
309.603866124
309.603837111
308.037576657
308.176472927
308.380706489
308.584626384
308.760677272
308.902540717
309.012114552
309.094316214
309.154642409
309.19813867
309.229042389
309.25072875
309.265788814
309.276156411
309.283242489
309.288057474
309.291313922
309.293508061
309.294982001
309.295969742
309.296630363
309.29707152
309.297365822
309.297562138
309.297693327
309.297781502
309.297841612
309.29788387
309.29791542
309.297941493
309.297966258
309.297993484
309.298027082
309.298071714
309.29813489
309.29823601
309.29840412
309.29864166
309.298443688
309.298331859
309.29830639
307.637546859
307.796669308
308.025032838
308.247191174
308.435583388
308.585573493
308.700441909
308.786085988
308.848652894
308.893609946
308.925467973
308.947779524
308.963250684
308.973889838
308.981156221
308.98609155
308.989428703
308.991677167
308.993187766
308.994200271
308.99487762
308.995330066
308.995631975
308.995833409
308.995968039
308.996058531
308.996120209
308.996163545
308.996195855
308.996222494
308.996247712
308.996275328
308.996309266
308.996354114
308.99641705
308.996516536
308.996680043
308.996911416
308.996719698
308.996610522
308.99658907
307.233426008
307.416421222
307.672033557
307.913655417
308.114728437
308.272863983
308.39293232
308.481899221
308.546596043
308.592922101
308.625662803
308.648545759
308.664388753
308.675271423
308.682698435
308.687740495
308.691149036
308.693445503
308.694988493
308.696022895
308.69671505
308.697177496
308.69748615
308.697692124
308.697829806
308.697922353
308.697985421
308.698029707
308.698062685
308.698089814
308.698115414
308.698143348
308.698177539
308.698222499
308.69828505
308.698382595
308.698540726
308.698764507
308.698581042
308.698475333
308.698458313
306.824087896
307.035419191
307.321839589
307.584103106
307.798096661
307.96432365
308.089445778
308.181580652
308.248272517
308.295859187
308.32939943
308.352792042
308.368962107
308.38005647
308.387621849
308.392755261
308.396224675
308.398562007
308.40013257
308.401185626
308.401890409
308.402361396
308.402675815
308.402885673
308.403025967
308.40312027
308.403184523
308.403229617
308.403263156
308.403290689
308.403316596
308.403344767
308.403379123
308.403424089
308.403486124
308.403581456
308.403733489
308.403948212
308.403775139
308.403673733
308.403661463
306.40821491
306.653376498
306.974662817
307.258640242
307.485667179
307.659849405
307.789823127
307.884933614
307.953460377
308.002181947
308.03642665
308.060258925
308.076705619
308.087975959
308.095654777
308.100862352
308.104380892
308.106751117
308.108343869
308.109411953
308.110126927
308.110604818
308.110923904
308.111136909
308.111279318
308.111375042
308.111440251
308.111485991
308.111519973
308.111547817
308.111573945
308.111602269
308.111636694
308.111681557
308.111742956
308.111835848
308.111981126
308.112185277
308.112024876
308.11192865
308.111921301
305.984257799
306.270051503
306.630821306
306.937396779
307.177413379
307.359323805
307.493886618
307.591740892
307.661916159
307.711629028
307.746470825
307.770664311
307.787331383
307.798738006
307.806502628
307.811765333
307.815320005
307.817714304
307.819323285
307.820402382
307.821124845
307.821607826
307.82193036
307.822145691
307.822289665
307.822386437
307.822452346
307.822498554
307.822532849
307.822560899
307.822587158
307.822615543
307.822649935
307.822694585
307.82275524
307.822845514
307.822983465
307.823175459
307.823030161
307.822940067
307.822937589
305.55038448
305.8852787
306.290770411
306.620526613
306.873301639
307.062615258
307.201440584
307.301765779
307.37337618
307.423918453
307.459237453
307.48370511
307.500530424
307.51202962
307.519849678
307.52514663
307.528723184
307.531131891
307.532750567
307.533836271
307.534563259
307.535049335
307.535373976
307.535590733
307.535735663
307.535833072
307.535899402
307.535945882
307.535980345
307.536008489
307.536034778
307.536063126
307.53609738
307.536141702
307.536201514
307.53628905
307.53641921
307.53659737
307.536469759
307.536386882
307.536388907
305.104414583
305.499011805
305.955140987
306.308204421
306.573289259
306.769578294
306.912272242
307.014753318
307.087558077
307.138749331
307.17441301
307.199059159
307.215974681
307.227518727
307.235361135
307.240669611
307.244252555
307.24666516
307.248286429
307.24937395
307.250102235
307.250589233
307.250914522
307.25113172
307.251276946
307.251374544
307.251440987
307.251487525
307.251522001
307.251550116
307.251576329
307.251604534
307.251638537
307.251682411
307.251741287
307.251826031
307.251948074
307.252110604
307.252003416
307.251929066
307.251934773
304.643735376
305.111383387
305.62478615
306.000617637
306.277321545
306.480053944
306.626152604
306.730431739
306.804162564
306.855803809
306.891667029
306.916387398
306.933319249
306.944856463
306.952685458
306.957980931
306.961553555
306.96395873
306.965574933
306.966659102
306.967385202
306.967870779
306.968195135
306.968411714
306.968556518
306.96865382
306.968720046
306.968766411
306.968800732
306.968828686
306.968854709
306.96888266
306.968916292
306.96895959
306.969017441
306.969099407
306.969213188
306.969358142
306.969274241
306.969210099
306.969218046
304.165193335
304.722787334
305.300838265
305.69795117
305.98532812
306.193870338
306.342837494
306.448514071
306.522875398
306.574749238
306.610654407
306.63533628
306.652204862
306.6636797
306.671456925
306.676713124
306.680257547
306.682643172
306.684246116
306.685321406
306.686041592
306.686523235
306.686844968
306.687059789
306.687203403
306.687299891
306.687365545
306.687411489
306.687445475
306.687473128
306.687498839
306.687526417
306.687559552
306.687602136
306.687658869
306.687738146
306.687843747
306.687969004
306.687911342
306.687859661
306.687867562
303.664953697
304.333992771
304.984778015
305.400361494
305.697218713
305.910843654
306.062068632
306.168699918
306.243369533
306.295240534
306.33101792
306.355540384
306.372260576
306.383613792
306.391298412
306.396487408
306.399984639
306.402337848
306.403918837
306.404979375
306.405689688
306.406164729
306.406482042
306.406693892
306.406835502
306.406930622
306.406995327
306.407040588
306.407074047
306.407101249
306.407126519
306.407153601
306.407186106
306.407227828
306.407283334
306.407360083
306.40745788
306.407561124
306.407532657
306.407496542
306.407501007
303.13831781
303.946301416
304.67851754
305.107935407
305.412879089
305.630779583
305.783574739
305.890677386
305.965307441
306.016922702
306.052390891
306.076625198
306.093106633
306.104275486
306.111824342
306.116916665
306.120346683
306.12265392
306.124203791
306.125243391
306.125939657
306.126405282
306.126716277
306.126923881
306.127062623
306.127155794
306.127219151
306.127263451
306.127296183
306.127322778
306.127347471
306.127373925
306.12740566
306.127446359
306.127500501
306.127574954
306.127665695
306.127744413
306.127747959
306.127731738
306.127727973
)
;

boundaryField
{
    inout
    {
        type            empty;
    }
    top
    {
        type            fixedValue;
        value           nonuniform List<scalar> 
41
(
302.858901242
303.754033212
304.531508663
304.964281149
305.272523748
305.492127621
305.645323726
305.752401327
305.826825572
305.878178169
305.913395527
305.937417703
305.953732133
305.964775822
305.972234157
305.977262707
305.980648645
305.982925808
305.98445533
305.985481226
305.986168286
305.986627731
305.986934576
305.987139388
305.987276245
305.987368135
305.987430611
305.987474285
305.987506548
305.987532758
305.987557092
305.987583164
305.987614441
305.987654542
305.987707909
305.987781356
305.98786919
305.987934326
305.987955137
305.987950927
305.987940576
)
;
    }
    bottom
    {
        type            fixedValue;
        value           uniform 320;
    }
    frontback
    {
        type            empty;
    }
}


// ************************************************************************* //
