/*--------------------------------*- C++ -*----------------------------------*\
| =========                 |                                                 |
| \\      /  F ield         | OpenFOAM: The Open Source CFD Toolbox           |
|  \\    /   O peration     | Version:  2112                                  |
|   \\  /    A nd           | Website:  www.openfoam.com                      |
|    \\/     M anipulation  |                                                 |
\*---------------------------------------------------------------------------*/
FoamFile
{
    version     2.0;
    format      ascii;
    arch        "LSB;label=32;scalar=64";
    class       volVectorField;
    location    "8";
    object      flux;
}
// * * * * * * * * * * * * * * * * * * * * * * * * * * * * * * * * * * * * * //

dimensions      [0 1 -1 1 0 0 0];

internalField   nonuniform List<vector> 
512
(
(0.0213744 -23.1335 0)
(0.0615445 -22.9612 0)
(0.0949401 -22.6378 0)
(0.119535 -22.1973 0)
(0.135394 -21.6771 0)
(0.143876 -21.1105 0)
(0.146789 -20.5233 0)
(0.14585 -19.9342 0)
(0.142437 -19.3553 0)
(0.13754 -18.794 0)
(0.131811 -18.2546 0)
(0.125639 -17.7393 0)
(0.119223 -17.2493 0)
(0.112631 -16.7854 0)
(0.105844 -16.3482 0)
(0.0987887 -15.9385 0)
(0.0913585 -15.5577 0)
(0.0834329 -15.2074 0)
(0.0748925 -14.8899 0)
(0.0656345 -14.6079 0)
(0.0555925 -14.3644 0)
(0.0447606 -14.1627 0)
(0.0332256 -14.006 0)
(0.0212089 -13.8967 0)
(0.00911604 -13.8363 0)
(-0.00241196 -13.824 0)
(-0.0124672 -13.8563 0)
(-0.0199035 -13.9251 0)
(-0.0234906 -14.0174 0)
(-0.0222553 -14.1154 0)
(-0.0160044 -14.198 0)
(-0.00583413 -14.2454 0)
(0.0647677 -23.1766 0)
(0.186327 -22.999 0)
(0.287021 -22.667 0)
(0.360788 -22.2172 0)
(0.408027 -21.6887 0)
(0.43302 -21.1156 0)
(0.441331 -20.5238 0)
(0.438169 -19.9317 0)
(0.427681 -19.3509 0)
(0.412827 -18.7885 0)
(0.395544 -18.2485 0)
(0.376979 -17.7329 0)
(0.357715 -17.2428 0)
(0.337943 -16.7787 0)
(0.317601 -16.3413 0)
(0.296462 -15.9313 0)
(0.274201 -15.55 0)
(0.250455 -15.1992 0)
(0.22486 -14.881 0)
(0.197103 -14.5982 0)
(0.166978 -14.3539 0)
(0.134461 -14.1514 0)
(0.0998014 -13.994 0)
(0.0636499 -13.8844 0)
(0.0272112 -13.8241 0)
(-0.00759991 -13.8128 0)
(-0.0380523 -13.847 0)
(-0.0606697 -13.919 0)
(-0.0716752 -14.0158 0)
(-0.068019 -14.1191 0)
(-0.0489937 -14.2066 0)
(-0.0178775 -14.2571 0)
(0.110154 -23.2641 0)
(0.316326 -23.0754 0)
(0.485833 -22.7257 0)
(0.608672 -22.2569 0)
(0.686222 -21.7115 0)
(0.726334 -21.1254 0)
(0.73874 -20.5244 0)
(0.732321 -19.9263 0)
(0.714017 -19.3419 0)
(0.688723 -18.7775 0)
(0.659599 -18.2364 0)
(0.628497 -17.7202 0)
(0.596336 -17.2298 0)
(0.563402 -16.7654 0)
(0.529563 -16.3275 0)
(0.49442 -15.9168 0)
(0.457422 -15.5347 0)
(0.417947 -15.1827 0)
(0.375376 -14.8631 0)
(0.329172 -14.5788 0)
(0.278973 -14.3328 0)
(0.224709 -14.1287 0)
(0.166762 -13.97 0)
(0.106175 -13.8595 0)
(0.0449119 -13.7995 0)
(-0.0138655 -13.7899 0)
(-0.0655855 -13.828 0)
(-0.10433 -13.9065 0)
(-0.123519 -14.0124 0)
(-0.117623 -14.1264 0)
(-0.08501 -14.2242 0)
(-0.0310847 -14.2812 0)
(0.159074 -23.3987 0)
(0.455491 -23.1921 0)
(0.696312 -22.8142 0)
(0.867878 -22.3156 0)
(0.973776 -21.7446 0)
(1.02657 -21.1388 0)
(1.04086 -20.5243 0)
(1.02944 -19.9175 0)
(1.0021 -19.3279 0)
(0.965579 -18.7606 0)
(0.924152 -18.218 0)
(0.880284 -17.7011 0)
(0.835156 -17.2102 0)
(0.789094 -16.7454 0)
(0.741857 -16.3068 0)
(0.692852 -15.8953 0)
(0.641274 -15.5118 0)
(0.586226 -15.1581 0)
(0.526814 -14.8365 0)
(0.462256 -14.5497 0)
(0.392001 -14.3012 0)
(0.315896 -14.0947 0)
(0.234402 -13.9337 0)
(0.14889 -13.822 0)
(0.0620116 -13.7622 0)
(-0.0218762 -13.7551 0)
(-0.0963457 -13.7989 0)
(-0.152867 -13.887 0)
(-0.181627 -14.0069 0)
(-0.173902 -14.1377 0)
(-0.126367 -14.2519 0)
(-0.0463666 -14.3194 0)
(0.213424 -23.5849 0)
(0.608554 -23.3517 0)
(0.924106 -22.9329 0)
(1.1435 -22.3924 0)
(1.27461 -21.7863 0)
(1.33645 -21.1545 0)
(1.3494 -20.5223 0)
(1.33055 -19.9044 0)
(1.29249 -19.3083 0)
(1.24366 -18.7375 0)
(1.18932 -18.1932 0)
(1.13239 -17.6755 0)
(1.07422 -17.1841 0)
(1.01509 -16.7188 0)
(0.954606 -16.2795 0)
(0.89194 -15.8667 0)
(0.826008 -15.4814 0)
(0.755612 -15.1255 0)
(0.679559 -14.801 0)
(0.596786 -14.5111 0)
(0.506516 -14.2591 0)
(0.408456 -14.0491 0)
(0.303074 -13.8851 0)
(0.191974 -13.7714 0)
(0.0783909 -13.7115 0)
(-0.0322161 -13.7074 0)
(-0.131572 -13.7584 0)
(-0.20833 -13.8595 0)
(-0.24885 -13.9984 0)
(-0.24013 -14.153 0)
(-0.175858 -14.291 0)
(-0.0648526 -14.3744 0)
(0.275702 -23.8295 0)
(0.781511 -23.5576 0)
(1.17594 -23.082 0)
(1.44119 -22.4857 0)
(1.59275 -21.8344 0)
(1.65854 -21.1702 0)
(1.66589 -20.5168 0)
(1.63647 -19.8859 0)
(1.58557 -19.2824 0)
(1.52313 -18.7078 0)
(1.45514 -18.1617 0)
(1.38482 -17.6433 0)
(1.31353 -17.1515 0)
(1.24143 -16.6857 0)
(1.16791 -16.2454 0)
(1.09186 -15.8311 0)
(1.01188 -15.4437 0)
(0.926435 -15.0849 0)
(0.834007 -14.7569 0)
(0.733216 -14.4629 0)
(0.623007 -14.2064 0)
(0.502877 -13.9919 0)
(0.373207 -13.8239 0)
(0.235712 -13.7073 0)
(0.0940583 -13.6468 0)
(-0.0453395 -13.6457 0)
(-0.172424 -13.7054 0)
(-0.272837 -13.8224 0)
(-0.328378 -13.9858 0)
(-0.320241 -14.1724 0)
(-0.23705 -14.3438 0)
(-0.0880378 -14.4501 0)
(0.349376 -24.1421 0)
(0.982313 -23.8145 0)
(1.46007 -23.2613 0)
(1.76731 -22.5927 0)
(1.93234 -21.8857 0)
(1.99524 -21.1833 0)
(1.99158 -20.5056 0)
(1.94775 -19.8605 0)
(1.88153 -19.2493 0)
(1.80399 -18.6709 0)
(1.72155 -18.1234 0)
(1.63749 -17.6045 0)
(1.55305 -17.1125 0)
(1.46814 -16.6461 0)
(1.38187 -16.2049 0)
(1.29278 -15.7889 0)
(1.19913 -15.3989 0)
(1.09903 -15.0366 0)
(0.990573 -14.7043 0)
(0.872031 -14.4052 0)
(0.74201 -14.1432 0)
(0.599718 -13.923 0)
(0.445333 -13.7497 0)
(0.280526 -13.6292 0)
(0.109197 -13.5671 0)
(-0.0615099 -13.5689 0)
(-0.219918 -13.6379 0)
(-0.348546 -13.7737 0)
(-0.423826 -13.9674 0)
(-0.419107 -14.1955 0)
(-0.314709 -14.4127 0)
(-0.118012 -14.5523 0)
(0.439501 -24.5366 0)
(1.22191 -24.1278 0)
(1.78683 -23.4694 0)
(2.12898 -22.7093 0)
(2.29747 -21.9359 0)
(2.34859 -21.1901 0)
(2.3273 -20.4863 0)
(2.26464 -19.8265 0)
(2.18033 -19.2079 0)
(2.08609 -18.6264 0)
(1.98838 -18.0778 0)
(1.89027 -17.5589 0)
(1.79269 -17.067 0)
(1.69521 -16.6003 0)
(1.59655 -16.1581 0)
(1.49486 -15.7401 0)
(1.38802 -15.3471 0)
(1.27373 -14.9807 0)
(1.14969 -14.6433 0)
(1.01375 -14.3382 0)
(0.864116 -14.0696 0)
(0.699619 -13.8423 0)
(0.520105 -13.6624 0)
(0.327011 -13.5364 0)
(0.124217 -13.4715 0)
(-0.0807224 -13.4751 0)
(-0.274832 -13.5537 0)
(-0.437579 -13.7104 0)
(-0.539275 -13.9403 0)
(-0.542878 -14.2213 0)
(-0.415437 -14.5009 0)
(-0.157833 -14.6892 0)
(0.55377 -25.0332 0)
(1.51588 -24.5034 0)
(2.16929 -23.703 0)
(2.53405 -22.8293 0)
(2.69194 -21.9792 0)
(2.72003 -21.1865 0)
(2.67337 -20.4561 0)
(2.58695 -19.7823 0)
(2.48161 -19.1574 0)
(2.36905 -18.5736 0)
(2.25531 -18.0249 0)
(2.14293 -17.5065 0)
(2.03233 -17.0151 0)
(1.9226 -16.5484 0)
(1.81199 -16.1051 0)
(1.69826 -15.685 0)
(1.5788 -15.2887 0)
(1.45091 -14.9176 0)
(1.31181 -14.5743 0)
(1.15892 -14.2621 0)
(0.989975 -13.9855 0)
(0.803316 -13.7498 0)
(0.598313 -13.5614 0)
(0.375962 -13.4282 0)
(0.139814 -13.3586 0)
(-0.102609 -13.3626 0)
(-0.33756 -13.4499 0)
(-0.54186 -13.6287 0)
(-0.67925 -13.9004 0)
(-0.699382 -14.2473 0)
(-0.548681 -14.6117 0)
(-0.212177 -14.873 0)
(0.704391 -25.6623 0)
(1.88703 -24.9468 0)
(2.6239 -23.9548 0)
(2.99085 -22.9434 0)
(3.11886 -22.0082 0)
(3.11017 -21.1673 0)
(3.02938 -20.4116 0)
(2.91399 -19.726 0)
(2.7847 -19.0965 0)
(2.65232 -18.512 0)
(2.5219 -17.9644 0)
(2.39515 -17.4475 0)
(2.27176 -16.9571 0)
(2.15022 -16.4906 0)
(2.02825 -16.0464 0)
(1.9031 -15.624 0)
(1.77172 -15.2239 0)
(1.63091 -14.8475 0)
(1.47742 -14.4975 0)
(1.30815 -14.1771 0)
(1.1203 -13.8912 0)
(0.911645 -13.6453 0)
(0.680905 -13.4467 0)
(0.42841 -13.304 0)
(0.157023 -13.2273 0)
(-0.126325 -13.229 0)
(-0.407921 -13.323 0)
(-0.662847 -13.5237 0)
(-0.848535 -13.8415 0)
(-0.898545 -14.2687 0)
(-0.728322 -14.7481 0)
(-0.288483 -15.1219 0)
(0.911541 -26.4703 0)
(2.36962 -25.4592 0)
(3.171 -24.2116 0)
(3.50738 -23.0383 0)
(3.57996 -22.0136 0)
(3.51833 -21.1268 0)
(3.39405 -20.3496 0)
(3.24451 -19.6556 0)
(3.08857 -19.0243 0)
(2.9351 -18.4413 0)
(2.78759 -17.8962 0)
(2.64654 -17.3818 0)
(2.51075 -16.8932 0)
(2.37796 -16.4273 0)
(2.24531 -15.9823 0)
(2.10953 -15.5574 0)
(1.96703 -15.1531 0)
(1.81412 -14.7709 0)
(1.64702 -14.4131 0)
(1.46207 -14.0835 0)
(1.25589 -13.7867 0)
(1.02555 -13.529 0)
(0.768993 -13.3179 0)
(0.485638 -13.1631 0)
(0.177276 -13.0763 0)
(-0.150433 -13.0723 0)
(-0.484908 -13.1692 0)
(-0.80111 -13.3892 0)
(-1.05172 -13.755 0)
(-1.15268 -14.2767 0)
(-0.975293 -14.9104 0)
(-0.399076 -15.4638 0)
(1.20993 -27.5311 0)
(3.01639 -26.0308 0)
(3.83435 -24.4498 0)
(4.08985 -23.0962 0)
(4.07461 -21.9845 0)
(3.94215 -21.059 0)
(3.76502 -20.2669 0)
(3.57664 -19.5695 0)
(3.39182 -18.9402 0)
(3.2164 -18.3611 0)
(3.05167 -17.8203 0)
(2.89663 -17.3096 0)
(2.749 -16.8236 0)
(2.60568 -16.3588 0)
(2.46319 -15.9131 0)
(2.31766 -15.4857 0)
(2.16498 -15.0769 0)
(2.00092 -14.6881 0)
(1.82112 -14.3218 0)
(1.62136 -13.9816 0)
(1.39757 -13.6725 0)
(1.14607 -13.4009 0)
(0.863851 -13.1749 0)
(0.54919 -13.0051 0)
(0.202435 -12.9044 0)
(-0.172786 -12.89 0)
(-0.566404 -12.9845 0)
(-0.955714 -13.218 0)
(-1.29227 -13.6291 0)
(-1.47628 -14.2563 0)
(-1.32189 -15.0924 0)
(-0.565183 -15.9438 0)
(1.66166 -28.9669 0)
(3.91029 -26.6227 0)
(4.63832 -24.631 0)
(4.74 -23.0936 0)
(4.59856 -21.9089 0)
(4.37715 -20.9578 0)
(4.13882 -20.1605 0)
(3.90787 -19.4663 0)
(3.69273 -18.8434 0)
(3.49503 -18.2714 0)
(3.31334 -17.7369 0)
(3.14489 -17.2313 0)
(2.98618 -16.7487 0)
(2.83322 -16.2854 0)
(2.68186 -15.8393 0)
(2.52762 -15.4093 0)
(2.36582 -14.9957 0)
(2.19169 -14.5997 0)
(2.00027 -14.2238 0)
(1.78672 -13.8719 0)
(1.54625 -13.5488 0)
(1.27435 -13.2613 0)
(0.966905 -13.0177 0)
(0.620853 -12.8296 0)
(0.234794 -12.7109 0)
(-0.19046 -12.6804 0)
(-0.648898 -12.7648 0)
(-1.12342 -13.0022 0)
(-1.57089 -13.449 0)
(-1.8843 -14.1835 0)
(-1.81902 -15.2701 0)
(-0.824787 -16.6365 0)
(2.38204 -30.9888 0)
(5.18433 -27.1264 0)
(5.59889 -24.6988 0)
(5.45091 -23.0028 0)
(5.14251 -21.7749 0)
(4.81637 -20.8182 0)
(4.51076 -20.0283 0)
(4.23515 -19.3454 0)
(3.98928 -18.734 0)
(3.76967 -18.1723 0)
(3.57172 -17.6463 0)
(3.39072 -17.1473 0)
(3.22194 -16.6691 0)
(3.06039 -16.2078 0)
(2.90127 -15.7616 0)
(2.7395 -15.3288 0)
(2.56979 -14.91 0)
(2.38685 -14.5062 0)
(2.185 -14.1198 0)
(1.95888 -13.755 0)
(1.70286 -13.4162 0)
(1.4116 -13.1108 0)
(1.0797 -12.8467 0)
(0.702608 -12.6369 0)
(0.277039 -12.4953 0)
(-0.199756 -12.4421 0)
(-0.72728 -12.5069 0)
(-1.2978 -12.734 0)
(-1.88294 -13.197 0)
(-2.38684 -14.0227 0)
(-2.54838 -15.378 0)
(-1.24838 -17.6711 0)
(3.59286 -33.9762 0)
(7.0553 -27.2714 0)
(6.7001 -24.5836 0)
(6.20193 -22.795 0)
(5.69089 -21.5731 0)
(5.25046 -20.6368 0)
(4.87521 -19.8693 0)
(4.555 -19.2066 0)
(4.27926 -18.6122 0)
(4.0389 -18.0643 0)
(3.82586 -17.5489 0)
(3.6335 -17.0581 0)
(3.45592 -16.5851 0)
(3.28697 -16.1264 0)
(3.12137 -15.6805 0)
(2.9534 -15.2448 0)
(2.7771 -14.8206 0)
(2.58677 -14.4084 0)
(2.37587 -14.0105 0)
(2.13857 -13.6316 0)
(1.86835 -13.2751 0)
(1.55909 -12.95 0)
(1.20387 -12.662 0)
(0.796562 -12.427 0)
(0.332165 -12.2574 0)
(-0.196301 -12.1743 0)
(-0.794836 -12.2083 0)
(-1.46844 -12.4067 0)
(-2.21524 -12.854 0)
(-2.97483 -13.7293 0)
(-3.64318 -15.2514 0)
(-1.97131 -19.2784 0)
(5.73448 -38.6399 0)
(9.88066 -26.4121 0)
(7.83706 -24.2436 0)
(6.95616 -22.4456 0)
(6.22161 -21.2999 0)
(5.66826 -20.4133 0)
(5.2259 -19.6842 0)
(4.86373 -19.0507 0)
(4.56041 -18.4787 0)
(4.30129 -17.9482 0)
(4.07484 -17.4454 0)
(3.8726 -16.9644 0)
(3.68776 -16.4977 0)
(3.51274 -16.0419 0)
(3.34209 -15.5968 0)
(3.16942 -15.1579 0)
(2.98796 -14.7283 0)
(2.7919 -14.3071 0)
(2.5734 -13.8964 0)
(2.32657 -13.5026 0)
(2.0437 -13.1262 0)
(1.71818 -12.7797 0)
(1.34117 -12.4639 0)
(0.904904 -12.2007 0)
(0.403422 -11.9977 0)
(-0.175219 -11.8769 0)
(-0.843497 -11.8684 0)
(-1.62063 -12.0169 0)
(-2.54426 -12.4036 0)
(-3.58554 -13.274 0)
(-5.32291 -14.4983 0)
(-3.26189 -21.8913 0)
)
;

boundaryField
{
    left
    {
        type            calculated;
        value           nonuniform List<vector> 
16
(
(0 -23.1335 0)
(0 -23.1766 0)
(0 -23.2641 0)
(0 -23.3987 0)
(0 -23.5849 0)
(0 -23.8295 0)
(0 -24.1421 0)
(0 -24.5366 0)
(0 -25.0332 0)
(0 -25.6623 0)
(0 -26.4703 0)
(0 -27.5311 0)
(0 -28.9669 0)
(0 -30.9888 0)
(0 -33.9762 0)
(0 -38.6399 0)
)
;
    }
    right
    {
        type            calculated;
        value           nonuniform List<vector> 
16
(
(0 -14.2454 0)
(0 -14.2571 0)
(0 -14.2812 0)
(0 -14.3194 0)
(0 -14.3744 0)
(0 -14.4501 0)
(0 -14.5523 0)
(0 -14.6892 0)
(0 -14.873 0)
(0 -15.1219 0)
(0 -15.4638 0)
(0 -15.9438 0)
(0 -16.6365 0)
(0 -17.6711 0)
(0 -19.2784 0)
(0 -21.8913 0)
)
;
    }
    interface
    {
        type            calculated;
        value           nonuniform List<vector> 
32
(
(5.73448 -41.5072 0)
(9.88066 -25.618 0)
(7.83706 -24.016 0)
(6.95616 -22.2328 0)
(6.22161 -21.1454 0)
(5.66826 -20.2912 0)
(5.2259 -19.5852 0)
(4.86373 -18.9686 0)
(4.56041 -18.4092 0)
(4.30129 -17.8883 0)
(4.07484 -17.3922 0)
(3.8726 -16.9165 0)
(3.68776 -16.4532 0)
(3.51274 -15.9989 0)
(3.34209 -15.5544 0)
(3.16942 -15.1139 0)
(2.98796 -14.6814 0)
(2.7919 -14.2556 0)
(2.5734 -13.8382 0)
(2.32657 -13.4369 0)
(2.0437 -13.0499 0)
(1.71818 -12.6925 0)
(1.34117 -12.3617 0)
(0.904904 -12.0836 0)
(0.403422 -11.8626 0)
(-0.175219 -11.721 0)
(-0.843497 -11.6883 0)
(-1.62063 -11.8063 0)
(-2.54426 -12.1499 0)
(-3.58554 -13.0045 0)
(-5.32291 -13.8966 0)
(-3.26189 -23.5202 0)
)
;
    }
    bottom
    {
        type            calculated;
        value           nonuniform List<vector> 
32
(
(0.0213744 -23.1228 0)
(0.0615445 -22.9518 0)
(0.0949401 -22.6305 0)
(0.119535 -22.1923 0)
(0.135394 -21.6742 0)
(0.143876 -21.1092 0)
(0.146789 -20.5232 0)
(0.14585 -19.9348 0)
(0.142437 -19.3564 0)
(0.13754 -18.7953 0)
(0.131811 -18.2561 0)
(0.125639 -17.7409 0)
(0.119223 -17.2509 0)
(0.112631 -16.7871 0)
(0.105844 -16.3499 0)
(0.0987887 -15.9403 0)
(0.0913585 -15.5596 0)
(0.0834329 -15.2095 0)
(0.0748925 -14.8921 0)
(0.0656345 -14.6103 0)
(0.0555925 -14.3671 0)
(0.0447606 -14.1656 0)
(0.0332256 -14.009 0)
(0.0212089 -13.8998 0)
(0.00911604 -13.8393 0)
(-0.00241196 -13.8268 0)
(-0.0124672 -13.8586 0)
(-0.0199035 -13.9266 0)
(-0.0234906 -14.0178 0)
(-0.0222553 -14.1145 0)
(-0.0160044 -14.1959 0)
(-0.00583413 -14.2425 0)
)
;
    }
    defaultFaces
    {
        type            empty;
    }
}


// ************************************************************************* //
