/*--------------------------------*- C++ -*----------------------------------*\
| =========                 |                                                 |
| \\      /  F ield         | OpenFOAM: The Open Source CFD Toolbox           |
|  \\    /   O peration     | Version:  2112                                  |
|   \\  /    A nd           | Website:  www.openfoam.com                      |
|    \\/     M anipulation  |                                                 |
\*---------------------------------------------------------------------------*/
FoamFile
{
    version     2.0;
    format      ascii;
    arch        "LSB;label=32;scalar=64";
    class       volScalarField;
    location    "8";
    object      gradTx;
}
// * * * * * * * * * * * * * * * * * * * * * * * * * * * * * * * * * * * * * //

dimensions      [0 -1 0 1 0 0 0];

internalField   nonuniform List<scalar> 
512
(
0.0213744
0.0615445
0.0949401
0.119535
0.135394
0.143876
0.146789
0.14585
0.142437
0.13754
0.131811
0.125639
0.119223
0.112631
0.105844
0.0987887
0.0913585
0.0834329
0.0748925
0.0656345
0.0555925
0.0447606
0.0332256
0.0212089
0.00911604
-0.00241196
-0.0124672
-0.0199035
-0.0234906
-0.0222553
-0.0160044
-0.00583413
0.0647677
0.186327
0.287021
0.360788
0.408027
0.43302
0.441331
0.438169
0.427681
0.412827
0.395544
0.376979
0.357715
0.337943
0.317601
0.296462
0.274201
0.250455
0.22486
0.197103
0.166978
0.134461
0.0998014
0.0636499
0.0272112
-0.00759991
-0.0380523
-0.0606697
-0.0716752
-0.068019
-0.0489937
-0.0178775
0.110154
0.316326
0.485833
0.608672
0.686222
0.726334
0.73874
0.732321
0.714017
0.688723
0.659599
0.628497
0.596336
0.563402
0.529563
0.49442
0.457422
0.417947
0.375376
0.329172
0.278973
0.224709
0.166762
0.106175
0.0449119
-0.0138655
-0.0655855
-0.10433
-0.123519
-0.117623
-0.08501
-0.0310847
0.159074
0.455491
0.696312
0.867878
0.973776
1.02657
1.04086
1.02944
1.0021
0.965579
0.924152
0.880284
0.835156
0.789094
0.741857
0.692852
0.641274
0.586226
0.526814
0.462256
0.392001
0.315896
0.234402
0.14889
0.0620116
-0.0218762
-0.0963457
-0.152867
-0.181627
-0.173902
-0.126367
-0.0463666
0.213424
0.608554
0.924106
1.1435
1.27461
1.33645
1.3494
1.33055
1.29249
1.24366
1.18932
1.13239
1.07422
1.01509
0.954606
0.89194
0.826008
0.755612
0.679559
0.596786
0.506516
0.408456
0.303074
0.191974
0.0783909
-0.0322161
-0.131572
-0.20833
-0.24885
-0.24013
-0.175858
-0.0648526
0.275702
0.781511
1.17594
1.44119
1.59275
1.65854
1.66589
1.63647
1.58557
1.52313
1.45514
1.38482
1.31353
1.24143
1.16791
1.09186
1.01188
0.926435
0.834007
0.733216
0.623007
0.502877
0.373207
0.235712
0.0940583
-0.0453395
-0.172424
-0.272837
-0.328378
-0.320241
-0.23705
-0.0880378
0.349376
0.982313
1.46007
1.76731
1.93234
1.99524
1.99158
1.94775
1.88153
1.80399
1.72155
1.63749
1.55305
1.46814
1.38187
1.29278
1.19913
1.09903
0.990573
0.872031
0.74201
0.599718
0.445333
0.280526
0.109197
-0.0615099
-0.219918
-0.348546
-0.423826
-0.419107
-0.314709
-0.118012
0.439501
1.22191
1.78683
2.12898
2.29747
2.34859
2.3273
2.26464
2.18033
2.08609
1.98838
1.89027
1.79269
1.69521
1.59655
1.49486
1.38802
1.27373
1.14969
1.01375
0.864116
0.699619
0.520105
0.327011
0.124217
-0.0807224
-0.274832
-0.437579
-0.539275
-0.542878
-0.415437
-0.157833
0.55377
1.51588
2.16929
2.53405
2.69194
2.72003
2.67337
2.58695
2.48161
2.36905
2.25531
2.14293
2.03233
1.9226
1.81199
1.69826
1.5788
1.45091
1.31181
1.15892
0.989975
0.803316
0.598313
0.375962
0.139814
-0.102609
-0.33756
-0.54186
-0.67925
-0.699382
-0.548681
-0.212177
0.704391
1.88703
2.6239
2.99085
3.11886
3.11017
3.02938
2.91399
2.7847
2.65232
2.5219
2.39515
2.27176
2.15022
2.02825
1.9031
1.77172
1.63091
1.47742
1.30815
1.1203
0.911645
0.680905
0.42841
0.157023
-0.126325
-0.407921
-0.662847
-0.848535
-0.898545
-0.728322
-0.288483
0.911541
2.36962
3.171
3.50738
3.57996
3.51833
3.39405
3.24451
3.08857
2.9351
2.78759
2.64654
2.51075
2.37796
2.24531
2.10953
1.96703
1.81412
1.64702
1.46207
1.25589
1.02555
0.768993
0.485638
0.177276
-0.150433
-0.484908
-0.80111
-1.05172
-1.15268
-0.975293
-0.399076
1.20993
3.01639
3.83435
4.08985
4.07461
3.94215
3.76502
3.57664
3.39182
3.2164
3.05167
2.89663
2.749
2.60568
2.46319
2.31766
2.16498
2.00092
1.82112
1.62136
1.39757
1.14607
0.863851
0.54919
0.202435
-0.172786
-0.566404
-0.955714
-1.29227
-1.47628
-1.32189
-0.565183
1.66166
3.91029
4.63832
4.74
4.59856
4.37715
4.13882
3.90787
3.69273
3.49503
3.31334
3.14489
2.98618
2.83322
2.68186
2.52762
2.36582
2.19169
2.00027
1.78672
1.54625
1.27435
0.966905
0.620853
0.234794
-0.19046
-0.648898
-1.12342
-1.57089
-1.8843
-1.81902
-0.824787
2.38204
5.18433
5.59889
5.45091
5.14251
4.81637
4.51076
4.23515
3.98928
3.76967
3.57172
3.39072
3.22194
3.06039
2.90127
2.7395
2.56979
2.38685
2.185
1.95888
1.70286
1.4116
1.0797
0.702608
0.277039
-0.199756
-0.72728
-1.2978
-1.88294
-2.38684
-2.54838
-1.24838
3.59286
7.0553
6.7001
6.20193
5.69089
5.25046
4.87521
4.555
4.27926
4.0389
3.82586
3.6335
3.45592
3.28697
3.12137
2.9534
2.7771
2.58677
2.37587
2.13857
1.86835
1.55909
1.20387
0.796562
0.332165
-0.196301
-0.794836
-1.46844
-2.21524
-2.97483
-3.64318
-1.97131
5.73448
9.88066
7.83706
6.95616
6.22161
5.66826
5.2259
4.86373
4.56041
4.30129
4.07484
3.8726
3.68776
3.51274
3.34209
3.16942
2.98796
2.7919
2.5734
2.32657
2.0437
1.71818
1.34117
0.904904
0.403422
-0.175219
-0.843497
-1.62063
-2.54426
-3.58554
-5.32291
-3.26189
)
;

boundaryField
{
    left
    {
        type            calculated;
        value           uniform 0;
    }
    right
    {
        type            calculated;
        value           uniform 0;
    }
    interface
    {
        type            calculated;
        value           nonuniform List<scalar> 
32
(
5.73448
9.88066
7.83706
6.95616
6.22161
5.66826
5.2259
4.86373
4.56041
4.30129
4.07484
3.8726
3.68776
3.51274
3.34209
3.16942
2.98796
2.7919
2.5734
2.32657
2.0437
1.71818
1.34117
0.904904
0.403422
-0.175219
-0.843497
-1.62063
-2.54426
-3.58554
-5.32291
-3.26189
)
;
    }
    bottom
    {
        type            calculated;
        value           nonuniform List<scalar> 
32
(
0.0213744
0.0615445
0.0949401
0.119535
0.135394
0.143876
0.146789
0.14585
0.142437
0.13754
0.131811
0.125639
0.119223
0.112631
0.105844
0.0987887
0.0913585
0.0834329
0.0748925
0.0656345
0.0555925
0.0447606
0.0332256
0.0212089
0.00911604
-0.00241196
-0.0124672
-0.0199035
-0.0234906
-0.0222553
-0.0160044
-0.00583413
)
;
    }
    defaultFaces
    {
        type            empty;
    }
}


// ************************************************************************* //
