/*--------------------------------*- C++ -*----------------------------------*\
| =========                 |                                                 |
| \\      /  F ield         | OpenFOAM: The Open Source CFD Toolbox           |
|  \\    /   O peration     | Version:  2112                                  |
|   \\  /    A nd           | Website:  www.openfoam.com                      |
|    \\/     M anipulation  |                                                 |
\*---------------------------------------------------------------------------*/
FoamFile
{
    version     2.0;
    format      ascii;
    arch        "LSB;label=32;scalar=64";
    class       volScalarField;
    location    "8";
    object      gradTy;
}
// * * * * * * * * * * * * * * * * * * * * * * * * * * * * * * * * * * * * * //

dimensions      [0 -1 0 1 0 0 0];

internalField   nonuniform List<scalar> 
512
(
-23.1335
-22.9612
-22.6378
-22.1973
-21.6771
-21.1105
-20.5233
-19.9342
-19.3553
-18.794
-18.2546
-17.7393
-17.2493
-16.7854
-16.3482
-15.9385
-15.5577
-15.2074
-14.8899
-14.6079
-14.3644
-14.1627
-14.006
-13.8967
-13.8363
-13.824
-13.8563
-13.9251
-14.0174
-14.1154
-14.198
-14.2454
-23.1766
-22.999
-22.667
-22.2172
-21.6887
-21.1156
-20.5238
-19.9317
-19.3509
-18.7885
-18.2485
-17.7329
-17.2428
-16.7787
-16.3413
-15.9313
-15.55
-15.1992
-14.881
-14.5982
-14.3539
-14.1514
-13.994
-13.8844
-13.8241
-13.8128
-13.847
-13.919
-14.0158
-14.1191
-14.2066
-14.2571
-23.2641
-23.0754
-22.7257
-22.2569
-21.7115
-21.1254
-20.5244
-19.9263
-19.3419
-18.7775
-18.2364
-17.7202
-17.2298
-16.7654
-16.3275
-15.9168
-15.5347
-15.1827
-14.8631
-14.5788
-14.3328
-14.1287
-13.97
-13.8595
-13.7995
-13.7899
-13.828
-13.9065
-14.0124
-14.1264
-14.2242
-14.2812
-23.3987
-23.1921
-22.8142
-22.3156
-21.7446
-21.1388
-20.5243
-19.9175
-19.3279
-18.7606
-18.218
-17.7011
-17.2102
-16.7454
-16.3068
-15.8953
-15.5118
-15.1581
-14.8365
-14.5497
-14.3012
-14.0947
-13.9337
-13.822
-13.7622
-13.7551
-13.7989
-13.887
-14.0069
-14.1377
-14.2519
-14.3194
-23.5849
-23.3517
-22.9329
-22.3924
-21.7863
-21.1545
-20.5223
-19.9044
-19.3083
-18.7375
-18.1932
-17.6755
-17.1841
-16.7188
-16.2795
-15.8667
-15.4814
-15.1255
-14.801
-14.5111
-14.2591
-14.0491
-13.8851
-13.7714
-13.7115
-13.7074
-13.7584
-13.8595
-13.9984
-14.153
-14.291
-14.3744
-23.8295
-23.5576
-23.082
-22.4857
-21.8344
-21.1702
-20.5168
-19.8859
-19.2824
-18.7078
-18.1617
-17.6433
-17.1515
-16.6857
-16.2454
-15.8311
-15.4437
-15.0849
-14.7569
-14.4629
-14.2064
-13.9919
-13.8239
-13.7073
-13.6468
-13.6457
-13.7054
-13.8224
-13.9858
-14.1724
-14.3438
-14.4501
-24.1421
-23.8145
-23.2613
-22.5927
-21.8857
-21.1833
-20.5056
-19.8605
-19.2493
-18.6709
-18.1234
-17.6045
-17.1125
-16.6461
-16.2049
-15.7889
-15.3989
-15.0366
-14.7043
-14.4052
-14.1432
-13.923
-13.7497
-13.6292
-13.5671
-13.5689
-13.6379
-13.7737
-13.9674
-14.1955
-14.4127
-14.5523
-24.5366
-24.1278
-23.4694
-22.7093
-21.9359
-21.1901
-20.4863
-19.8265
-19.2079
-18.6264
-18.0778
-17.5589
-17.067
-16.6003
-16.1581
-15.7401
-15.3471
-14.9807
-14.6433
-14.3382
-14.0696
-13.8423
-13.6624
-13.5364
-13.4715
-13.4751
-13.5537
-13.7104
-13.9403
-14.2213
-14.5009
-14.6892
-25.0332
-24.5034
-23.703
-22.8293
-21.9792
-21.1865
-20.4561
-19.7823
-19.1574
-18.5736
-18.0249
-17.5065
-17.0151
-16.5484
-16.1051
-15.685
-15.2887
-14.9176
-14.5743
-14.2621
-13.9855
-13.7498
-13.5614
-13.4282
-13.3586
-13.3626
-13.4499
-13.6287
-13.9004
-14.2473
-14.6117
-14.873
-25.6623
-24.9468
-23.9548
-22.9434
-22.0082
-21.1673
-20.4116
-19.726
-19.0965
-18.512
-17.9644
-17.4475
-16.9571
-16.4906
-16.0464
-15.624
-15.2239
-14.8475
-14.4975
-14.1771
-13.8912
-13.6453
-13.4467
-13.304
-13.2273
-13.229
-13.323
-13.5237
-13.8415
-14.2687
-14.7481
-15.1219
-26.4703
-25.4592
-24.2116
-23.0383
-22.0136
-21.1268
-20.3496
-19.6556
-19.0243
-18.4413
-17.8962
-17.3818
-16.8932
-16.4273
-15.9823
-15.5574
-15.1531
-14.7709
-14.4131
-14.0835
-13.7867
-13.529
-13.3179
-13.1631
-13.0763
-13.0723
-13.1692
-13.3892
-13.755
-14.2767
-14.9104
-15.4638
-27.5311
-26.0308
-24.4498
-23.0962
-21.9845
-21.059
-20.2669
-19.5695
-18.9402
-18.3611
-17.8203
-17.3096
-16.8236
-16.3588
-15.9131
-15.4857
-15.0769
-14.6881
-14.3218
-13.9816
-13.6725
-13.4009
-13.1749
-13.0051
-12.9044
-12.89
-12.9845
-13.218
-13.6291
-14.2563
-15.0924
-15.9438
-28.9669
-26.6227
-24.631
-23.0936
-21.9089
-20.9578
-20.1605
-19.4663
-18.8434
-18.2714
-17.7369
-17.2313
-16.7487
-16.2854
-15.8393
-15.4093
-14.9957
-14.5997
-14.2238
-13.8719
-13.5488
-13.2613
-13.0177
-12.8296
-12.7109
-12.6804
-12.7648
-13.0022
-13.449
-14.1835
-15.2701
-16.6365
-30.9888
-27.1264
-24.6988
-23.0028
-21.7749
-20.8182
-20.0283
-19.3454
-18.734
-18.1723
-17.6463
-17.1473
-16.6691
-16.2078
-15.7616
-15.3288
-14.91
-14.5062
-14.1198
-13.755
-13.4162
-13.1108
-12.8467
-12.6369
-12.4953
-12.4421
-12.5069
-12.734
-13.197
-14.0227
-15.378
-17.6711
-33.9762
-27.2714
-24.5836
-22.795
-21.5731
-20.6368
-19.8693
-19.2066
-18.6122
-18.0643
-17.5489
-17.0581
-16.5851
-16.1264
-15.6805
-15.2448
-14.8206
-14.4084
-14.0105
-13.6316
-13.2751
-12.95
-12.662
-12.427
-12.2574
-12.1743
-12.2083
-12.4067
-12.854
-13.7293
-15.2514
-19.2784
-38.6399
-26.4121
-24.2436
-22.4456
-21.2999
-20.4133
-19.6842
-19.0507
-18.4787
-17.9482
-17.4454
-16.9644
-16.4977
-16.0419
-15.5968
-15.1579
-14.7283
-14.3071
-13.8964
-13.5026
-13.1262
-12.7797
-12.4639
-12.2007
-11.9977
-11.8769
-11.8684
-12.0169
-12.4036
-13.274
-14.4983
-21.8913
)
;

boundaryField
{
    left
    {
        type            calculated;
        value           nonuniform List<scalar> 
16
(
-23.1335
-23.1766
-23.2641
-23.3987
-23.5849
-23.8295
-24.1421
-24.5366
-25.0332
-25.6623
-26.4703
-27.5311
-28.9669
-30.9888
-33.9762
-38.6399
)
;
    }
    right
    {
        type            calculated;
        value           nonuniform List<scalar> 
16
(
-14.2454
-14.2571
-14.2812
-14.3194
-14.3744
-14.4501
-14.5523
-14.6892
-14.873
-15.1219
-15.4638
-15.9438
-16.6365
-17.6711
-19.2784
-21.8913
)
;
    }
    interface
    {
        type            calculated;
        value           nonuniform List<scalar> 
32
(
-41.5072
-25.618
-24.016
-22.2328
-21.1454
-20.2912
-19.5852
-18.9686
-18.4092
-17.8883
-17.3922
-16.9165
-16.4532
-15.9989
-15.5544
-15.1139
-14.6814
-14.2556
-13.8382
-13.4369
-13.0499
-12.6925
-12.3617
-12.0836
-11.8626
-11.721
-11.6883
-11.8063
-12.1499
-13.0045
-13.8966
-23.5202
)
;
    }
    bottom
    {
        type            calculated;
        value           nonuniform List<scalar> 
32
(
-23.1228
-22.9518
-22.6305
-22.1923
-21.6742
-21.1092
-20.5232
-19.9348
-19.3564
-18.7953
-18.2561
-17.7409
-17.2509
-16.7871
-16.3499
-15.9403
-15.5596
-15.2095
-14.8921
-14.6103
-14.3671
-14.1656
-14.009
-13.8998
-13.8393
-13.8268
-13.8586
-13.9266
-14.0178
-14.1145
-14.1959
-14.2425
)
;
    }
    defaultFaces
    {
        type            empty;
    }
}


// ************************************************************************* //
