/*--------------------------------*- C++ -*----------------------------------*\
| =========                 |                                                 |
| \\      /  F ield         | OpenFOAM: The Open Source CFD Toolbox           |
|  \\    /   O peration     | Version:  2112                                  |
|   \\  /    A nd           | Website:  www.openfoam.com                      |
|    \\/     M anipulation  |                                                 |
\*---------------------------------------------------------------------------*/
FoamFile
{
    version     2.0;
    format      ascii;
    arch        "LSB;label=32;scalar=64";
    class       volScalarField;
    location    "8";
    object      T;
}
// * * * * * * * * * * * * * * * * * * * * * * * * * * * * * * * * * * * * * //

dimensions      [0 0 0 1 0 0 0];

internalField   nonuniform List<scalar> 
512
(
309.819
309.821
309.823
309.827
309.831
309.835
309.84
309.844
309.849
309.853
309.857
309.861
309.865
309.869
309.872
309.875
309.878
309.881
309.884
309.886
309.888
309.889
309.891
309.891
309.892
309.892
309.892
309.891
309.89
309.89
309.889
309.889
309.458
309.462
309.469
309.48
309.492
309.505
309.519
309.533
309.546
309.56
309.572
309.584
309.596
309.607
309.617
309.626
309.635
309.644
309.651
309.658
309.663
309.668
309.672
309.674
309.676
309.676
309.675
309.674
309.671
309.669
309.667
309.666
309.095
309.102
309.115
309.132
309.153
309.175
309.198
309.221
309.244
309.266
309.287
309.307
309.326
309.345
309.362
309.378
309.393
309.406
309.419
309.43
309.439
309.447
309.453
309.458
309.46
309.46
309.459
309.456
309.452
309.449
309.445
309.443
308.731
308.741
308.759
308.784
308.813
308.845
308.878
308.91
308.942
308.973
309.002
309.03
309.057
309.083
309.107
309.129
309.15
309.169
309.187
309.202
309.215
309.227
309.235
309.241
309.244
309.245
309.243
309.239
309.234
309.228
309.223
309.22
308.364
308.377
308.402
308.435
308.473
308.515
308.557
308.599
308.64
308.68
308.718
308.754
308.789
308.821
308.852
308.881
308.908
308.933
308.955
308.975
308.992
309.007
309.018
309.026
309.03
309.03
309.028
309.022
309.015
309.007
309
308.996
307.994
308.011
308.043
308.084
308.133
308.184
308.236
308.288
308.339
308.387
308.434
308.478
308.52
308.56
308.598
308.633
308.666
308.696
308.724
308.749
308.77
308.788
308.801
308.811
308.816
308.817
308.813
308.806
308.796
308.785
308.776
308.771
307.619
307.641
307.681
307.732
307.791
307.853
307.916
307.978
308.037
308.095
308.15
308.203
308.253
308.3
308.344
308.386
308.425
308.461
308.494
308.523
308.548
308.569
308.586
308.597
308.603
308.604
308.599
308.59
308.578
308.564
308.552
308.544
307.239
307.267
307.316
307.378
307.449
307.522
307.595
307.667
307.737
307.804
307.867
307.928
307.986
308.04
308.091
308.14
308.185
308.227
308.265
308.298
308.328
308.352
308.372
308.385
308.392
308.393
308.387
308.376
308.36
308.342
308.326
308.316
306.852
306.887
306.947
307.023
307.106
307.191
307.276
307.358
307.437
307.513
307.585
307.654
307.719
307.781
307.839
307.894
307.946
307.993
308.036
308.075
308.109
308.137
308.159
308.174
308.182
308.183
308.176
308.162
308.142
308.119
308.098
308.085
306.457
306.501
306.575
306.665
306.762
306.86
306.956
307.049
307.138
307.223
307.304
307.381
307.454
307.523
307.588
307.65
307.707
307.76
307.809
307.853
307.891
307.923
307.948
307.965
307.975
307.975
307.967
307.95
307.925
307.897
307.869
307.851
306.05
306.107
306.199
306.306
306.418
306.529
306.638
306.742
306.84
306.935
307.024
307.109
307.189
307.266
307.338
307.406
307.47
307.529
307.583
307.632
307.675
307.71
307.739
307.758
307.769
307.77
307.76
307.739
307.709
307.673
307.637
307.612
305.63
305.705
305.818
305.945
306.074
306.2
306.32
306.435
306.544
306.647
306.745
306.838
306.926
307.01
307.089
307.163
307.234
307.299
307.359
307.413
307.46
307.5
307.532
307.554
307.566
307.567
307.555
307.531
307.495
307.45
307.403
307.368
305.19
305.294
305.435
305.584
305.731
305.871
306.004
306.13
306.249
306.361
306.467
306.568
306.664
306.754
306.841
306.922
306.999
307.07
307.136
307.195
307.247
307.292
307.327
307.352
307.366
307.367
307.354
307.326
307.284
307.228
307.166
307.114
304.725
304.873
305.049
305.223
305.389
305.545
305.69
305.827
305.955
306.076
306.191
306.299
306.403
306.501
306.594
306.682
306.765
306.843
306.914
306.979
307.037
307.086
307.125
307.153
307.169
307.17
307.156
307.125
307.075
307.007
306.926
306.848
304.222
304.446
304.663
304.865
305.05
305.221
305.378
305.525
305.663
305.793
305.916
306.032
306.143
306.248
306.348
306.443
306.533
306.617
306.694
306.765
306.828
306.882
306.925
306.957
306.975
306.978
306.963
306.928
306.871
306.79
306.685
306.562
303.663
304.021
304.28
304.511
304.715
304.9
305.069
305.226
305.373
305.512
305.642
305.766
305.884
305.997
306.104
306.206
306.302
306.392
306.476
306.553
306.622
306.681
306.729
306.765
306.786
306.79
306.775
306.737
306.673
306.578
306.449
306.245
)
;

boundaryField
{
    left
    {
        type            zeroGradient;
    }
    right
    {
        type            zeroGradient;
    }
    interface
    {
        type            fixedValue;
        value           nonuniform List<scalar> 
32
(
303.339
303.821
304.093
304.337
304.55
304.741
304.916
305.078
305.23
305.372
305.506
305.634
305.756
305.872
305.982
306.087
306.187
306.281
306.368
306.448
306.52
306.582
306.633
306.67
306.693
306.698
306.683
306.645
306.578
306.476
306.341
306.062
)
;
    }
    bottom
    {
        type            fixedValue;
        value           uniform 310;
    }
    defaultFaces
    {
        type            empty;
    }
}


// ************************************************************************* //
