/*--------------------------------*- C++ -*----------------------------------*\
| =========                 |                                                 |
| \\      /  F ield         | OpenFOAM: The Open Source CFD Toolbox           |
|  \\    /   O peration     | Version:  2112                                  |
|   \\  /    A nd           | Website:  www.openfoam.com                      |
|    \\/     M anipulation  |                                                 |
\*---------------------------------------------------------------------------*/
FoamFile
{
    version     2.0;
    format      ascii;
    arch        "LSB;label=32;scalar=64";
    class       surfaceScalarField;
    location    "2";
    object      phi;
}
// * * * * * * * * * * * * * * * * * * * * * * * * * * * * * * * * * * * * * //

dimensions      [1 0 -1 0 0 0 0];

oriented        oriented;

internalField   nonuniform List<scalar> 
23692
(
2.32815e-06
-1.16296e-09
2.33025e-06
-2.09886e-09
2.33316e-06
-2.90056e-09
2.33674e-06
-3.5702e-09
2.34088e-06
-4.13482e-09
2.3455e-06
-4.61095e-09
2.35052e-06
-5.00871e-09
2.35587e-06
-5.33555e-09
2.36149e-06
-5.59712e-09
2.3673e-06
-5.79816e-09
2.37327e-06
-5.9439e-09
2.37933e-06
-6.0406e-09
2.38545e-06
-6.0959e-09
2.3916e-06
-6.11882e-09
2.39774e-06
-6.1195e-09
2.40388e-06
-6.10827e-09
2.41001e-06
-6.09516e-09
2.41613e-06
-6.08888e-09
2.42226e-06
-6.0966e-09
2.42842e-06
-6.12335e-09
2.43463e-06
-6.17204e-09
2.44091e-06
-6.24349e-09
2.44729e-06
-6.33695e-09
2.45378e-06
-6.45028e-09
2.4604e-06
-6.58041e-09
2.46717e-06
-6.72378e-09
2.47409e-06
-6.87668e-09
2.48117e-06
-7.03535e-09
2.48841e-06
-7.19642e-09
2.49582e-06
-7.35677e-09
2.50338e-06
-7.51363e-09
2.5111e-06
-7.66472e-09
2.51896e-06
-7.80806e-09
2.52695e-06
-7.94191e-09
2.53506e-06
-8.06492e-09
2.54329e-06
-8.17578e-09
2.55162e-06
-8.27338e-09
2.56003e-06
-8.35672e-09
2.56851e-06
-8.42483e-09
2.57704e-06
-8.47676e-09
2.5856e-06
-8.51148e-09
2.59419e-06
-8.52805e-09
2.60277e-06
-8.52531e-09
2.61132e-06
-8.50218e-09
2.61984e-06
-8.45735e-09
2.62828e-06
-8.38945e-09
2.63663e-06
-8.29693e-09
2.64486e-06
-8.17812e-09
2.65295e-06
-8.03101e-09
2.66086e-06
-7.85347e-09
2.66855e-06
-7.64305e-09
2.676e-06
-7.39689e-09
2.68317e-06
-7.1117e-09
2.69001e-06
-6.78373e-09
2.69647e-06
-6.40855e-09
2.7025e-06
-5.981e-09
2.70805e-06
-5.495e-09
2.71305e-06
-4.94328e-09
2.71741e-06
-4.31711e-09
2.72107e-06
-3.60608e-09
2.72392e-06
-2.7974e-09
2.72585e-06
-1.87545e-09
2.72672e-06
-8.2091e-10
2.72637e-06
3.90571e-10
2.72463e-06
1.79059e-09
2.72126e-06
3.41982e-09
2.71598e-06
5.33126e-09
2.70843e-06
7.5953e-09
2.69817e-06
1.03072e-08
2.68462e-06
1.35985e-08
2.66701e-06
1.76545e-08
2.64431e-06
2.27425e-08
2.6151e-06
2.92569e-08
2.57735e-06
3.77946e-08
2.52811e-06
4.92807e-08
2.46297e-06
6.5181e-08
2.37516e-06
8.78544e-08
2.25403e-06
1.21172e-07
2.08214e-06
1.71938e-07
1.82877e-06
2.53404e-07
4.01662e-07
1.42715e-06
2.4912e-06
-2.38115e-09
2.49344e-06
-4.33518e-09
2.49654e-06
-5.99751e-09
2.50036e-06
-7.38312e-09
2.50479e-06
-8.55199e-09
2.50973e-06
-9.53743e-09
2.51509e-06
-1.03605e-08
2.52081e-06
-1.10369e-08
2.52681e-06
-1.15779e-08
2.53302e-06
-1.19937e-08
2.5394e-06
-1.2295e-08
2.54587e-06
-1.24946e-08
2.55241e-06
-1.26085e-08
2.55898e-06
-1.26553e-08
2.56554e-06
-1.26558e-08
2.5721e-06
-1.26316e-08
2.57864e-06
-1.26032e-08
2.58517e-06
-1.25891e-08
2.59172e-06
-1.26037e-08
2.59829e-06
-1.26576e-08
2.60491e-06
-1.27567e-08
2.61161e-06
-1.2903e-08
2.61842e-06
-1.30948e-08
2.62534e-06
-1.33277e-08
2.6324e-06
-1.35954e-08
2.63961e-06
-1.38906e-08
2.64699e-06
-1.42053e-08
2.65453e-06
-1.45321e-08
2.66225e-06
-1.48638e-08
2.67014e-06
-1.51939e-08
2.6782e-06
-1.55169e-08
2.68641e-06
-1.58279e-08
2.69478e-06
-1.61228e-08
2.70329e-06
-1.63982e-08
2.71193e-06
-1.66511e-08
2.72069e-06
-1.68788e-08
2.72955e-06
-1.70791e-08
2.7385e-06
-1.72499e-08
2.74753e-06
-1.73891e-08
2.7566e-06
-1.74948e-08
2.76571e-06
-1.7565e-08
2.77484e-06
-1.75976e-08
2.78396e-06
-1.75903e-08
2.79306e-06
-1.75409e-08
2.80211e-06
-1.74466e-08
2.81108e-06
-1.73046e-08
2.81996e-06
-1.71118e-08
2.8287e-06
-1.68647e-08
2.83729e-06
-1.65593e-08
2.84568e-06
-1.61912e-08
2.85385e-06
-1.57552e-08
2.86176e-06
-1.52456e-08
2.86936e-06
-1.46557e-08
2.87661e-06
-1.39778e-08
2.88346e-06
-1.3203e-08
2.88986e-06
-1.23207e-08
2.89574e-06
-1.13185e-08
2.90103e-06
-1.01817e-08
2.90567e-06
-8.89279e-09
2.90954e-06
-7.43056e-09
2.91257e-06
-5.7694e-09
2.91463e-06
-3.87791e-09
2.91558e-06
-1.71742e-09
2.91526e-06
7.60565e-10
2.91348e-06
3.61824e-09
2.91002e-06
6.93543e-09
2.90459e-06
1.08154e-08
2.89684e-06
1.53938e-08
2.88634e-06
2.08525e-08
2.87255e-06
2.74383e-08
2.85476e-06
3.54934e-08
2.83206e-06
4.54995e-08
2.80321e-06
5.8148e-08
2.76661e-06
7.44464e-08
2.72005e-06
9.5882e-08
2.66062e-06
1.24661e-07
2.58451e-06
1.64012e-07
2.48723e-06
2.18499e-07
2.36495e-06
2.94264e-07
2.22099e-06
3.97405e-07
5.18665e-07
2.10403e-06
2.66566e-06
-3.65053e-09
2.66804e-06
-6.71022e-09
2.67134e-06
-9.29202e-09
2.67541e-06
-1.14454e-08
2.68013e-06
-1.32611e-08
2.68539e-06
-1.47912e-08
2.69112e-06
-1.60691e-08
2.69722e-06
-1.71187e-08
2.70362e-06
-1.79583e-08
2.71025e-06
-1.86033e-08
2.71704e-06
-1.90703e-08
2.72395e-06
-1.93794e-08
2.73093e-06
-1.95548e-08
2.73793e-06
-1.9626e-08
2.74493e-06
-1.96249e-08
2.75192e-06
-1.95851e-08
2.75889e-06
-1.95385e-08
2.76585e-06
-1.95134e-08
2.77282e-06
-1.95328e-08
2.77981e-06
-1.96127e-08
2.78686e-06
-1.97627e-08
2.79399e-06
-1.99857e-08
2.80122e-06
-2.02792e-08
2.80857e-06
-2.06364e-08
2.81608e-06
-2.10475e-08
2.82374e-06
-2.15011e-08
2.83157e-06
-2.19853e-08
2.83958e-06
-2.24881e-08
2.84777e-06
-2.29984e-08
2.85613e-06
-2.35065e-08
2.86468e-06
-2.40034e-08
2.87339e-06
-2.44817e-08
2.88226e-06
-2.4935e-08
2.89127e-06
-2.53579e-08
2.90043e-06
-2.57458e-08
2.9097e-06
-2.60947e-08
2.91909e-06
-2.64011e-08
2.92856e-06
-2.66616e-08
2.9381e-06
-2.68731e-08
2.9477e-06
-2.70326e-08
2.95734e-06
-2.71369e-08
2.96699e-06
-2.7183e-08
2.97663e-06
-2.71672e-08
2.98623e-06
-2.70861e-08
2.99578e-06
-2.69355e-08
3.00525e-06
-2.67111e-08
3.01461e-06
-2.64082e-08
3.02383e-06
-2.60212e-08
3.03288e-06
-2.55441e-08
3.04172e-06
-2.49702e-08
3.05032e-06
-2.42917e-08
3.05863e-06
-2.34997e-08
3.06662e-06
-2.25842e-08
3.07424e-06
-2.15335e-08
3.08143e-06
-2.0334e-08
3.08814e-06
-1.89698e-08
3.09431e-06
-1.74222e-08
3.09985e-06
-1.56692e-08
3.1047e-06
-1.36846e-08
3.10877e-06
-1.14367e-08
3.11195e-06
-8.8875e-09
3.11412e-06
-5.99066e-09
3.11514e-06
-2.68928e-09
3.11487e-06
1.08726e-09
3.11312e-06
5.42839e-09
3.10966e-06
1.04478e-08
3.10424e-06
1.6291e-08
3.09654e-06
2.31466e-08
3.08619e-06
3.1262e-08
3.07271e-06
4.09665e-08
3.05556e-06
5.27032e-08
3.03403e-06
6.70757e-08
3.00732e-06
8.49127e-08
2.97446e-06
1.07358e-07
2.93441e-06
1.35984e-07
2.88621e-06
1.7291e-07
2.82942e-06
2.20849e-07
2.76509e-06
2.82869e-07
2.69804e-06
3.61368e-07
2.64122e-06
4.54274e-07
5.43471e-07
2.61646e-06
2.85234e-06
-4.97102e-09
2.85485e-06
-9.22178e-09
2.85835e-06
-1.2786e-08
2.86268e-06
-1.57624e-08
2.8677e-06
-1.82705e-08
2.8733e-06
-2.03833e-08
2.8794e-06
-2.21472e-08
2.88589e-06
-2.35957e-08
2.89271e-06
-2.47538e-08
2.89977e-06
-2.56431e-08
2.90701e-06
-2.62865e-08
2.91437e-06
-2.67115e-08
2.9218e-06
-2.69518e-08
2.92925e-06
-2.70474e-08
2.9367e-06
-2.70428e-08
2.94413e-06
-2.69839e-08
2.95155e-06
-2.69148e-08
2.95895e-06
-2.68746e-08
2.96635e-06
-2.68949e-08
2.97378e-06
-2.69981e-08
2.98126e-06
-2.71975e-08
2.98882e-06
-2.74971e-08
2.99649e-06
-2.78936e-08
3.00428e-06
-2.83778e-08
3.01222e-06
-2.89363e-08
3.02033e-06
-2.95534e-08
3.02861e-06
-3.02125e-08
3.03707e-06
-3.08974e-08
3.04573e-06
-3.15928e-08
3.05456e-06
-3.22849e-08
3.06358e-06
-3.29617e-08
3.07277e-06
-3.36128e-08
3.08213e-06
-3.42294e-08
3.09164e-06
-3.4804e-08
3.10129e-06
-3.53303e-08
3.11106e-06
-3.58028e-08
3.12094e-06
-3.62164e-08
3.13091e-06
-3.65668e-08
3.14095e-06
-3.68496e-08
3.15104e-06
-3.70607e-08
3.16117e-06
-3.71958e-08
3.1713e-06
-3.72504e-08
3.18142e-06
-3.72199e-08
3.1915e-06
-3.70995e-08
3.20152e-06
-3.68835e-08
3.21144e-06
-3.65661e-08
3.22124e-06
-3.61408e-08
3.23089e-06
-3.56002e-08
3.24035e-06
-3.49362e-08
3.24958e-06
-3.41396e-08
3.25856e-06
-3.32001e-08
3.26723e-06
-3.21057e-08
3.27555e-06
-3.08431e-08
3.28348e-06
-2.93965e-08
3.29096e-06
-2.77479e-08
3.29793e-06
-2.58764e-08
3.30433e-06
-2.37573e-08
3.31009e-06
-2.13616e-08
3.31512e-06
-1.8655e-08
3.31934e-06
-1.55964e-08
3.32265e-06
-1.21367e-08
3.32494e-06
-8.21631e-09
3.32608e-06
-3.76296e-09
3.32591e-06
1.31211e-09
3.32428e-06
7.1195e-09
3.32099e-06
1.37979e-08
3.31582e-06
2.15219e-08
3.30851e-06
3.0513e-08
3.29877e-06
4.10551e-08
3.28628e-06
5.35142e-08
3.27068e-06
6.8365e-08
3.25158e-06
8.62251e-08
3.22865e-06
1.07897e-07
3.20166e-06
1.34412e-07
3.17063e-06
1.67064e-07
3.13619e-06
2.07396e-07
3.10006e-06
2.57035e-07
3.06579e-06
3.17189e-07
3.03978e-06
3.87432e-07
3.03114e-06
4.62963e-07
5.29657e-07
3.04501e-06
3.05208e-06
-6.34338e-09
3.05473e-06
-1.18687e-08
3.05844e-06
-1.64811e-08
3.06302e-06
-2.03386e-08
3.06835e-06
-2.35878e-08
3.0743e-06
-2.63235e-08
3.08078e-06
-2.86066e-08
3.08768e-06
-3.04809e-08
3.09493e-06
-3.19789e-08
3.10244e-06
-3.31286e-08
3.11014e-06
-3.39597e-08
3.11797e-06
-3.45076e-08
3.12586e-06
-3.48159e-08
3.13378e-06
-3.49361e-08
3.1417e-06
-3.49253e-08
3.1496e-06
-3.4843e-08
3.15747e-06
-3.4746e-08
3.16533e-06
-3.46849e-08
3.17318e-06
-3.47007e-08
3.18105e-06
-3.48225e-08
3.18897e-06
-3.50676e-08
3.19696e-06
-3.54415e-08
3.20506e-06
-3.59401e-08
3.21329e-06
-3.65516e-08
3.22167e-06
-3.7259e-08
3.23021e-06
-3.8042e-08
3.23894e-06
-3.88794e-08
3.24785e-06
-3.97502e-08
3.25696e-06
-4.06345e-08
3.26625e-06
-4.15147e-08
3.27573e-06
-4.23751e-08
3.28538e-06
-4.32024e-08
3.2952e-06
-4.3985e-08
3.30518e-06
-4.47133e-08
3.3153e-06
-4.53791e-08
3.32554e-06
-4.59752e-08
3.33588e-06
-4.64952e-08
3.34632e-06
-4.69333e-08
3.35683e-06
-4.72841e-08
3.36738e-06
-4.75421e-08
3.37795e-06
-4.77019e-08
3.38853e-06
-4.77578e-08
3.39909e-06
-4.77041e-08
3.4096e-06
-4.75342e-08
3.42003e-06
-4.72415e-08
3.43035e-06
-4.68182e-08
3.44054e-06
-4.62563e-08
3.45055e-06
-4.55466e-08
3.46037e-06
-4.46787e-08
3.46994e-06
-4.36412e-08
3.47923e-06
-4.24213e-08
3.4882e-06
-4.10041e-08
3.4968e-06
-3.9373e-08
3.50499e-06
-3.75088e-08
3.5127e-06
-3.53891e-08
3.51988e-06
-3.29885e-08
3.52647e-06
-3.02769e-08
3.53239e-06
-2.72194e-08
3.53758e-06
-2.37747e-08
3.54194e-06
-1.98939e-08
3.54539e-06
-1.55191e-08
3.54782e-06
-1.05806e-08
3.54912e-06
-4.99474e-09
3.54916e-06
1.33918e-09
3.5478e-06
8.54447e-09
3.54489e-06
1.67727e-08
3.54026e-06
2.62108e-08
3.53375e-06
3.70897e-08
3.52517e-06
4.96955e-08
3.51436e-06
6.43834e-08
3.50119e-06
8.15931e-08
3.48561e-06
1.01865e-07
3.46771e-06
1.25854e-07
3.44785e-06
1.54329e-07
3.42682e-06
1.8815e-07
3.40611e-06
2.28167e-07
3.3882e-06
2.75004e-07
3.37686e-06
3.28585e-07
3.37707e-06
3.87275e-07
3.39359e-06
4.46497e-07
4.97132e-07
3.42617e-06
3.26582e-06
-7.76927e-09
3.26861e-06
-1.46506e-08
3.27251e-06
-2.0379e-08
3.27736e-06
-2.51776e-08
3.283e-06
-2.9219e-08
3.28931e-06
-3.26202e-08
3.29618e-06
-3.54579e-08
3.30351e-06
-3.77865e-08
3.3112e-06
-3.9647e-08
3.31917e-06
-4.10743e-08
3.32735e-06
-4.21053e-08
3.33565e-06
-4.27837e-08
3.34404e-06
-4.31634e-08
3.35244e-06
-4.3308e-08
3.36085e-06
-4.32882e-08
3.36922e-06
-4.31773e-08
3.37756e-06
-4.30459e-08
3.38588e-06
-4.29566e-08
3.39419e-06
-4.29604e-08
3.40251e-06
-4.30939e-08
3.41087e-06
-4.33785e-08
3.41931e-06
-4.38216e-08
3.42784e-06
-4.44186e-08
3.4365e-06
-4.5155e-08
3.44531e-06
-4.60099e-08
3.45429e-06
-4.69586e-08
3.46345e-06
-4.79748e-08
3.4728e-06
-4.90324e-08
3.48234e-06
-5.01071e-08
3.49207e-06
-5.11768e-08
3.50198e-06
-5.2222e-08
3.51208e-06
-5.32262e-08
3.52234e-06
-5.4175e-08
3.53275e-06
-5.50564e-08
3.5433e-06
-5.58602e-08
3.55398e-06
-5.65774e-08
3.56476e-06
-5.72002e-08
3.57562e-06
-5.77214e-08
3.58655e-06
-5.81342e-08
3.59751e-06
-5.84319e-08
3.60849e-06
-5.8608e-08
3.61947e-06
-5.86555e-08
3.63041e-06
-5.85673e-08
3.64129e-06
-5.83357e-08
3.65207e-06
-5.79525e-08
3.66274e-06
-5.74085e-08
3.67326e-06
-5.6694e-08
3.68358e-06
-5.57979e-08
3.69369e-06
-5.47081e-08
3.70354e-06
-5.34109e-08
3.71308e-06
-5.18911e-08
3.72229e-06
-5.01314e-08
3.7311e-06
-4.81121e-08
3.73948e-06
-4.58109e-08
3.74736e-06
-4.32022e-08
3.75471e-06
-4.02563e-08
3.76144e-06
-3.69391e-08
3.76751e-06
-3.3211e-08
3.77283e-06
-2.90256e-08
3.77734e-06
-2.43287e-08
3.78095e-06
-1.90563e-08
3.78357e-06
-1.31331e-08
3.78511e-06
-6.46984e-09
3.78548e-06
1.03907e-09
3.78458e-06
9.51953e-09
3.7823e-06
1.91222e-08
3.77855e-06
3.00283e-08
3.77325e-06
4.24544e-08
3.76635e-06
5.66581e-08
3.75786e-06
7.29438e-08
3.74785e-06
9.16673e-08
3.73654e-06
1.13235e-07
3.72436e-06
1.38098e-07
3.71203e-06
1.66722e-07
3.7007e-06
1.99538e-07
3.6921e-06
2.36832e-07
3.68861e-06
2.78558e-07
3.69323e-06
3.24019e-07
3.70915e-06
3.71415e-07
3.73842e-06
4.1729e-07
4.56247e-07
3.77936e-06
3.49452e-06
-9.25077e-09
3.49745e-06
-1.75677e-08
3.50156e-06
-2.44813e-08
3.50667e-06
-3.02824e-08
3.51263e-06
-3.51692e-08
3.51931e-06
-3.92807e-08
3.52658e-06
-4.27099e-08
3.53434e-06
-4.55233e-08
3.54249e-06
-4.77702e-08
3.55094e-06
-4.94935e-08
3.5596e-06
-5.07374e-08
3.5684e-06
-5.15547e-08
3.57728e-06
-5.20097e-08
3.58619e-06
-5.21788e-08
3.59509e-06
-5.21467e-08
3.60396e-06
-5.20014e-08
3.61279e-06
-5.18277e-08
3.62158e-06
-5.17014e-08
3.63036e-06
-5.16838e-08
3.63914e-06
-5.18193e-08
3.64795e-06
-5.21346e-08
3.65683e-06
-5.2639e-08
3.66579e-06
-5.33273e-08
3.67488e-06
-5.41828e-08
3.68412e-06
-5.51808e-08
3.69352e-06
-5.62915e-08
3.70309e-06
-5.74837e-08
3.71286e-06
-5.87261e-08
3.72281e-06
-5.99893e-08
3.73295e-06
-6.12468e-08
3.74328e-06
-6.2475e-08
3.75378e-06
-6.36539e-08
3.76445e-06
-6.47663e-08
3.77526e-06
-6.57974e-08
3.78622e-06
-6.67349e-08
3.79729e-06
-6.7568e-08
3.80845e-06
-6.82873e-08
3.8197e-06
-6.8884e-08
3.83099e-06
-6.93502e-08
3.84232e-06
-6.96778e-08
3.85365e-06
-6.9859e-08
3.86496e-06
-6.98858e-08
3.87623e-06
-6.97497e-08
3.88742e-06
-6.94417e-08
3.8985e-06
-6.89523e-08
3.90944e-06
-6.8271e-08
3.92022e-06
-6.73863e-08
3.93079e-06
-6.62858e-08
3.94112e-06
-6.49554e-08
3.95117e-06
-6.33798e-08
3.9609e-06
-6.15415e-08
3.97027e-06
-5.94212e-08
3.97924e-06
-5.6997e-08
3.98775e-06
-5.4244e-08
3.99576e-06
-5.1134e-08
4.00322e-06
-4.76346e-08
4.01007e-06
-4.3709e-08
4.01625e-06
-3.93147e-08
4.0217e-06
-3.44026e-08
4.02637e-06
-2.8916e-08
4.03018e-06
-2.27891e-08
4.03307e-06
-1.59457e-08
4.03497e-06
-8.29722e-09
4.03582e-06
2.58291e-10
4.03558e-06
9.84017e-09
4.03419e-06
2.05836e-08
4.03164e-06
3.26485e-08
4.02795e-06
4.62175e-08
4.02318e-06
6.14968e-08
4.01748e-06
7.87155e-08
4.01109e-06
9.81209e-08
4.00443e-06
1.19969e-07
3.99809e-06
1.44505e-07
3.99295e-06
1.7193e-07
3.99021e-06
2.02346e-07
3.99143e-06
2.35676e-07
3.99852e-06
2.71534e-07
4.01353e-06
3.09066e-07
4.03826e-06
3.46755e-07
4.07333e-06
3.82276e-07
4.12588e-07
4.11705e-06
3.73925e-06
-1.079e-08
3.7423e-06
-2.06201e-08
3.74662e-06
-2.87893e-08
3.752e-06
-3.56553e-08
3.75829e-06
-4.14422e-08
3.76534e-06
-4.63103e-08
3.77302e-06
-5.03699e-08
3.78122e-06
-5.36996e-08
3.78983e-06
-5.63587e-08
3.79877e-06
-5.83975e-08
3.80793e-06
-5.98686e-08
3.81724e-06
-6.08338e-08
3.82664e-06
-6.13688e-08
3.83607e-06
-6.15628e-08
3.84548e-06
-6.1515e-08
3.85486e-06
-6.13289e-08
3.86418e-06
-6.11042e-08
3.87346e-06
-6.093e-08
3.88271e-06
-6.08793e-08
3.89196e-06
-6.1005e-08
3.90122e-06
-6.13389e-08
3.91054e-06
-6.18931e-08
3.91994e-06
-6.26623e-08
3.92945e-06
-6.36274e-08
3.93909e-06
-6.47599e-08
3.9489e-06
-6.60254e-08
3.95887e-06
-6.73871e-08
3.96903e-06
-6.88085e-08
3.97937e-06
-7.02549e-08
3.9899e-06
-7.16951e-08
4.0006e-06
-7.31013e-08
4.01148e-06
-7.44495e-08
4.02251e-06
-7.57195e-08
4.03369e-06
-7.68938e-08
4.04499e-06
-7.79577e-08
4.05641e-06
-7.88984e-08
4.06791e-06
-7.97049e-08
4.07948e-06
-8.03668e-08
4.09109e-06
-8.08748e-08
4.10272e-06
-8.12197e-08
4.11434e-06
-8.13924e-08
4.12593e-06
-8.13837e-08
4.13745e-06
-8.11839e-08
4.14888e-06
-8.0783e-08
4.16018e-06
-8.017e-08
4.17133e-06
-7.93333e-08
4.18229e-06
-7.82602e-08
4.19303e-06
-7.69367e-08
4.20351e-06
-7.53475e-08
4.2137e-06
-7.34756e-08
4.22354e-06
-7.13024e-08
4.23302e-06
-6.88068e-08
4.24207e-06
-6.59652e-08
4.25067e-06
-6.27515e-08
4.25875e-06
-5.9136e-08
4.26629e-06
-5.5085e-08
4.27322e-06
-5.05606e-08
4.27951e-06
-4.55198e-08
4.28511e-06
-3.99135e-08
4.28996e-06
-3.36861e-08
4.29403e-06
-2.67743e-08
4.29727e-06
-1.91059e-08
4.29965e-06
-1.05994e-08
4.30116e-06
-1.16587e-09
4.30177e-06
9.30254e-09
4.30152e-06
2.09108e-08
4.30046e-06
3.37877e-08
4.29869e-06
4.80691e-08
4.29636e-06
6.38983e-08
4.29373e-06
8.14207e-08
4.29115e-06
1.00775e-07
4.28911e-06
1.2208e-07
4.28828e-06
1.45413e-07
4.2895e-06
1.70782e-07
4.29383e-06
1.98086e-07
4.30251e-06
2.27063e-07
4.31689e-06
2.57225e-07
4.33823e-06
2.87792e-07
4.36741e-06
3.17641e-07
4.40445e-06
3.45305e-07
3.69112e-07
4.44799e-06
4.00111e-06
-1.23891e-08
4.0043e-06
-2.38081e-08
4.00882e-06
-3.33038e-08
4.01448e-06
-4.12975e-08
4.02109e-06
-4.80401e-08
4.02851e-06
-5.37125e-08
4.0366e-06
-5.84425e-08
4.04525e-06
-6.23219e-08
4.05434e-06
-6.54198e-08
4.06377e-06
-6.77951e-08
4.07345e-06
-6.95088e-08
4.08328e-06
-7.06323e-08
4.09321e-06
-7.12525e-08
4.10316e-06
-7.14722e-08
4.1131e-06
-7.14055e-08
4.12299e-06
-7.11716e-08
4.13283e-06
-7.08859e-08
4.1426e-06
-7.06517e-08
4.15234e-06
-7.05539e-08
4.16205e-06
-7.06547e-08
4.17177e-06
-7.09921e-08
4.18152e-06
-7.15811e-08
4.19134e-06
-7.24167e-08
4.20127e-06
-7.34778e-08
4.21131e-06
-7.47323e-08
4.2215e-06
-7.61409e-08
4.23185e-06
-7.76616e-08
4.24238e-06
-7.9252e-08
4.25307e-06
-8.08725e-08
4.26395e-06
-8.24864e-08
4.27499e-06
-8.40616e-08
4.2862e-06
-8.55702e-08
4.29755e-06
-8.69884e-08
4.30904e-06
-8.8296e-08
4.32065e-06
-8.94756e-08
4.33235e-06
-9.05126e-08
4.34413e-06
-9.13939e-08
4.35597e-06
-9.21077e-08
4.36783e-06
-9.26433e-08
4.37969e-06
-9.29902e-08
4.39153e-06
-9.31382e-08
4.40332e-06
-9.30769e-08
4.41502e-06
-9.27958e-08
4.42662e-06
-9.22836e-08
4.43807e-06
-9.15285e-08
4.44935e-06
-9.05177e-08
4.46042e-06
-8.92375e-08
4.47125e-06
-8.7673e-08
4.48181e-06
-8.5808e-08
4.49205e-06
-8.36245e-08
4.50194e-06
-8.1103e-08
4.51145e-06
-7.82217e-08
4.52053e-06
-7.49566e-08
4.52916e-06
-7.1281e-08
4.53728e-06
-6.71652e-08
4.54486e-06
-6.2576e-08
4.55187e-06
-5.74766e-08
4.55826e-06
-5.18257e-08
4.56401e-06
-4.55775e-08
4.5691e-06
-3.86806e-08
4.57349e-06
-3.10784e-08
4.57718e-06
-2.27081e-08
4.58017e-06
-1.35008e-08
4.58247e-06
-3.3826e-09
4.58413e-06
7.72601e-09
4.58522e-06
1.99043e-08
4.58585e-06
3.32385e-08
4.58619e-06
4.78144e-08
4.58646e-06
6.3712e-08
4.58696e-06
8.09991e-08
4.58809e-06
9.97221e-08
4.59036e-06
1.19893e-07
4.59437e-06
1.41475e-07
4.60087e-06
1.64359e-07
4.61069e-06
1.88345e-07
4.62472e-06
2.13113e-07
4.64381e-06
2.38204e-07
4.66868e-06
2.62996e-07
4.69968e-06
2.86715e-07
4.73659e-06
3.08468e-07
3.27347e-07
4.77842e-06
4.2813e-06
-1.40497e-08
4.28463e-06
-2.71314e-08
4.28936e-06
-3.80245e-08
4.29529e-06
-4.72088e-08
4.30223e-06
-5.4963e-08
4.31002e-06
-6.14883e-08
4.31853e-06
-6.69298e-08
4.32763e-06
-7.1393e-08
4.3372e-06
-7.49576e-08
4.34713e-06
-7.76915e-08
4.35732e-06
-7.96643e-08
4.36769e-06
-8.09573e-08
4.37815e-06
-8.16691e-08
4.38864e-06
-8.19159e-08
4.39911e-06
-8.18272e-08
4.40953e-06
-8.15384e-08
4.41988e-06
-8.11807e-08
4.43016e-06
-8.08726e-08
4.44038e-06
-8.07115e-08
4.45056e-06
-8.07697e-08
4.46073e-06
-8.10918e-08
4.47092e-06
-8.16966e-08
4.48116e-06
-8.25799e-08
4.49147e-06
-8.3719e-08
4.5019e-06
-8.50783e-08
4.51245e-06
-8.66139e-08
4.52315e-06
-8.82783e-08
4.53401e-06
-9.00236e-08
4.54502e-06
-9.18043e-08
4.55621e-06
-9.35788e-08
4.56754e-06
-9.53102e-08
4.57903e-06
-9.69663e-08
4.59065e-06
-9.85196e-08
4.6024e-06
-9.99469e-08
4.61425e-06
-1.01228e-07
4.62618e-06
-1.02347e-07
4.63817e-06
-1.03287e-07
4.6502e-06
-1.04037e-07
4.66223e-06
-1.04583e-07
4.67426e-06
-1.04914e-07
4.68624e-06
-1.05019e-07
4.69815e-06
-1.04886e-07
4.70996e-06
-1.04504e-07
4.72163e-06
-1.03861e-07
4.73315e-06
-1.02945e-07
4.74448e-06
-1.01741e-07
4.75557e-06
-1.00236e-07
4.76642e-06
-9.84139e-08
4.77697e-06
-9.62584e-08
4.78719e-06
-9.37512e-08
4.79706e-06
-9.08728e-08
4.80654e-06
-8.76015e-08
4.8156e-06
-8.39139e-08
4.8242e-06
-7.97842e-08
4.83232e-06
-7.51843e-08
4.83993e-06
-7.00832e-08
4.84699e-06
-6.44473e-08
4.8535e-06
-5.82396e-08
4.85944e-06
-5.142e-08
4.8648e-06
-4.39452e-08
4.86959e-06
-3.57684e-08
4.87381e-06
-2.684e-08
4.87751e-06
-1.71079e-08
4.88074e-06
-6.51866e-09
4.88357e-06
4.98015e-09
4.88613e-06
1.74359e-08
4.88857e-06
3.08941e-08
4.89108e-06
4.53926e-08
4.89392e-06
6.09564e-08
4.89741e-06
7.7591e-08
4.90195e-06
9.52748e-08
4.90797e-06
1.1395e-07
4.91602e-06
1.33513e-07
4.92666e-06
1.53804e-07
4.94049e-06
1.74594e-07
4.9581e-06
1.9558e-07
4.98001e-06
2.16381e-07
5.00654e-06
2.36542e-07
5.03778e-06
2.55549e-07
5.07346e-06
2.72872e-07
2.88022e-07
5.11286e-06
4.58112e-06
-1.57726e-08
4.58459e-06
-3.05887e-08
4.58952e-06
-4.29496e-08
4.59571e-06
-5.33867e-08
4.60298e-06
-6.22085e-08
4.61114e-06
-6.96352e-08
4.62007e-06
-7.58297e-08
4.62962e-06
-8.09117e-08
4.63966e-06
-8.49717e-08
4.65009e-06
-8.80871e-08
4.66081e-06
-9.03365e-08
4.6717e-06
-9.18114e-08
4.6827e-06
-9.26218e-08
4.69374e-06
-9.28976e-08
4.70475e-06
-9.2784e-08
4.7157e-06
-9.24326e-08
4.72657e-06
-9.19913e-08
4.73736e-06
-9.15937e-08
4.74806e-06
-9.13509e-08
4.75871e-06
-9.13456e-08
4.76932e-06
-9.16303e-08
4.77993e-06
-9.2228e-08
4.79056e-06
-9.31359e-08
4.80125e-06
-9.43304e-08
4.81203e-06
-9.57725e-08
4.82292e-06
-9.74141e-08
4.83393e-06
-9.92021e-08
4.84508e-06
-1.01083e-07
4.85637e-06
-1.03006e-07
4.86781e-06
-1.04923e-07
4.87939e-06
-1.06794e-07
4.8911e-06
-1.0858e-07
4.90294e-06
-1.10251e-07
4.91487e-06
-1.11781e-07
4.92689e-06
-1.13146e-07
4.93897e-06
-1.14328e-07
4.9511e-06
-1.15309e-07
4.96324e-06
-1.16075e-07
4.97538e-06
-1.16612e-07
4.98748e-06
-1.16907e-07
4.99952e-06
-1.16949e-07
5.01146e-06
-1.16724e-07
5.02329e-06
-1.16221e-07
5.03496e-06
-1.15428e-07
5.04645e-06
-1.1433e-07
5.05774e-06
-1.12916e-07
5.06878e-06
-1.11169e-07
5.07955e-06
-1.09076e-07
5.09002e-06
-1.06618e-07
5.10015e-06
-1.0378e-07
5.10993e-06
-1.00542e-07
5.11932e-06
-9.68832e-08
5.12829e-06
-9.27826e-08
5.13683e-06
-8.82167e-08
5.14491e-06
-8.31602e-08
5.15252e-06
-7.75865e-08
5.15964e-06
-7.14667e-08
5.16628e-06
-6.47707e-08
5.17243e-06
-5.74665e-08
5.1781e-06
-4.9521e-08
5.18334e-06
-4.09002e-08
5.18817e-06
-3.157e-08
5.19266e-06
-2.14969e-08
5.19689e-06
-1.065e-08
5.20096e-06
9.98404e-10
5.20503e-06
1.34653e-08
5.20926e-06
2.67581e-08
5.21388e-06
4.08762e-08
5.21912e-06
5.58024e-08
5.22531e-06
7.14985e-08
5.23277e-06
8.79006e-08
5.2419e-06
1.04913e-07
5.2531e-06
1.22406e-07
5.26678e-06
1.40208e-07
5.28336e-06
1.58106e-07
5.30318e-06
1.75845e-07
5.32652e-06
1.93133e-07
5.35349e-06
2.09652e-07
5.38405e-06
2.25071e-07
5.41793e-06
2.39079e-07
2.51416e-07
5.45462e-06
4.90194e-06
-1.75578e-08
4.90553e-06
-3.41775e-08
4.91067e-06
-4.80749e-08
4.91712e-06
-5.98263e-08
4.9247e-06
-6.97704e-08
4.93324e-06
-7.81466e-08
4.94257e-06
-8.51356e-08
4.95256e-06
-9.08713e-08
4.96308e-06
-9.54557e-08
4.97401e-06
-9.8976e-08
4.98523e-06
-1.0152e-07
4.99666e-06
-1.0319e-07
5.00819e-06
-1.04106e-07
5.01976e-06
-1.04414e-07
5.03131e-06
-1.04272e-07
5.04279e-06
-1.0385e-07
5.05417e-06
-1.03313e-07
5.06546e-06
-1.02809e-07
5.07664e-06
-1.02463e-07
5.08774e-06
-1.02371e-07
5.09878e-06
-1.02593e-07
5.10979e-06
-1.03157e-07
5.1208e-06
-1.04062e-07
5.13184e-06
-1.05284e-07
5.14294e-06
-1.06782e-07
5.15412e-06
-1.08503e-07
5.1654e-06
-1.1039e-07
5.1768e-06
-1.12383e-07
5.18832e-06
-1.14424e-07
5.19996e-06
-1.16462e-07
5.21172e-06
-1.18449e-07
5.22359e-06
-1.20345e-07
5.23555e-06
-1.22113e-07
5.2476e-06
-1.23724e-07
5.25972e-06
-1.25152e-07
5.27187e-06
-1.26375e-07
5.28405e-06
-1.27375e-07
5.29622e-06
-1.28136e-07
5.30837e-06
-1.28641e-07
5.32045e-06
-1.28878e-07
5.33245e-06
-1.28834e-07
5.34434e-06
-1.28496e-07
5.35608e-06
-1.27851e-07
5.36766e-06
-1.26887e-07
5.37903e-06
-1.25591e-07
5.39018e-06
-1.23949e-07
5.40108e-06
-1.21947e-07
5.41169e-06
-1.19571e-07
5.42199e-06
-1.16806e-07
5.43196e-06
-1.13634e-07
5.44157e-06
-1.1004e-07
5.45081e-06
-1.06005e-07
5.45965e-06
-1.0151e-07
5.46808e-06
-9.65354e-08
5.4761e-06
-9.10612e-08
5.48369e-06
-8.50658e-08
5.49086e-06
-7.85274e-08
5.49762e-06
-7.14239e-08
5.504e-06
-6.37333e-08
5.51002e-06
-5.54342e-08
5.51574e-06
-4.65065e-08
5.52121e-06
-3.69323e-08
5.52652e-06
-2.6697e-08
5.53176e-06
-1.57905e-08
5.53707e-06
-4.20847e-09
5.5426e-06
8.0429e-09
5.54852e-06
2.09412e-08
5.55504e-06
3.44563e-08
5.5624e-06
4.85429e-08
5.57086e-06
6.31374e-08
5.58071e-06
7.81549e-08
5.59223e-06
9.34877e-08
5.60573e-06
1.09003e-07
5.62149e-06
1.24545e-07
5.63976e-06
1.39933e-07
5.66073e-06
1.54968e-07
5.68452e-06
1.69437e-07
5.71113e-06
1.83126e-07
5.74047e-06
1.95825e-07
5.77229e-06
2.07355e-07
2.17579e-07
5.80621e-06
5.24522e-06
-1.94041e-08
5.24894e-06
-3.78933e-08
5.25427e-06
-5.33933e-08
5.26098e-06
-6.65185e-08
5.26886e-06
-7.76379e-08
5.27775e-06
-8.70108e-08
5.28748e-06
-9.48346e-08
5.2979e-06
-1.01258e-07
5.30888e-06
-1.06396e-07
5.32028e-06
-1.10344e-07
5.33201e-06
-1.13201e-07
5.34395e-06
-1.15078e-07
5.35601e-06
-1.16109e-07
5.3681e-06
-1.1645e-07
5.38017e-06
-1.16278e-07
5.39216e-06
-1.15778e-07
5.40405e-06
-1.1513e-07
5.41581e-06
-1.14501e-07
5.42745e-06
-1.1403e-07
5.43899e-06
-1.13825e-07
5.45043e-06
-1.13955e-07
5.46182e-06
-1.14453e-07
5.47317e-06
-1.15324e-07
5.48452e-06
-1.16542e-07
5.4959e-06
-1.18064e-07
5.50733e-06
-1.19834e-07
5.51883e-06
-1.21789e-07
5.53041e-06
-1.23864e-07
5.54209e-06
-1.25996e-07
5.55386e-06
-1.28127e-07
5.56573e-06
-1.30204e-07
5.57768e-06
-1.32183e-07
5.5897e-06
-1.34022e-07
5.60178e-06
-1.35689e-07
5.6139e-06
-1.37154e-07
5.62603e-06
-1.38395e-07
5.63817e-06
-1.39389e-07
5.65027e-06
-1.40119e-07
5.66232e-06
-1.40569e-07
5.67429e-06
-1.40725e-07
5.68615e-06
-1.40572e-07
5.69788e-06
-1.40098e-07
5.70944e-06
-1.39291e-07
5.72081e-06
-1.38138e-07
5.73197e-06
-1.36626e-07
5.74289e-06
-1.34742e-07
5.75354e-06
-1.32475e-07
5.7639e-06
-1.2981e-07
5.77396e-06
-1.26735e-07
5.78368e-06
-1.23235e-07
5.79306e-06
-1.19295e-07
5.80208e-06
-1.14902e-07
5.81073e-06
-1.1004e-07
5.81901e-06
-1.04695e-07
5.82693e-06
-9.88517e-08
5.83448e-06
-9.24957e-08
5.84168e-06
-8.56131e-08
5.84857e-06
-7.81909e-08
5.85517e-06
-7.02179e-08
5.86154e-06
-6.16848e-08
5.86773e-06
-5.25852e-08
5.87383e-06
-4.29166e-08
5.87993e-06
-3.26813e-08
5.88614e-06
-2.18874e-08
5.8926e-06
-1.05499e-08
5.89944e-06
1.30894e-09
5.90685e-06
1.36491e-08
5.91499e-06
2.64183e-08
5.92409e-06
3.95563e-08
5.93435e-06
5.29887e-08
5.94598e-06
6.66257e-08
5.95921e-06
8.03626e-08
5.97424e-06
9.40802e-08
5.99124e-06
1.07646e-07
6.01036e-06
1.20918e-07
6.03168e-06
1.33748e-07
6.05523e-06
1.45987e-07
6.08096e-06
1.57492e-07
6.10875e-06
1.68134e-07
6.13839e-06
1.7781e-07
1.86453e-07
6.16961e-06
5.61253e-06
-2.13088e-08
5.61637e-06
-4.17292e-08
5.62189e-06
-5.88942e-08
5.62883e-06
-7.34497e-08
5.63701e-06
-8.5795e-08
5.64624e-06
-9.6209e-08
5.65634e-06
-1.04906e-07
5.66716e-06
-1.12051e-07
5.67858e-06
-1.17768e-07
5.69044e-06
-1.22167e-07
5.70265e-06
-1.25354e-07
5.71507e-06
-1.27451e-07
5.72762e-06
-1.28603e-07
5.74021e-06
-1.2898e-07
5.75278e-06
-1.28774e-07
5.76525e-06
-1.28185e-07
5.77761e-06
-1.27413e-07
5.78983e-06
-1.26639e-07
5.8019e-06
-1.26019e-07
5.81383e-06
-1.25671e-07
5.82564e-06
-1.25677e-07
5.83736e-06
-1.26077e-07
5.84901e-06
-1.26877e-07
5.86062e-06
-1.28054e-07
5.87222e-06
-1.29564e-07
5.88384e-06
-1.31346e-07
5.89549e-06
-1.33334e-07
5.90719e-06
-1.35456e-07
5.91895e-06
-1.37645e-07
5.93078e-06
-1.39837e-07
5.94267e-06
-1.41974e-07
5.95461e-06
-1.44004e-07
5.96659e-06
-1.45885e-07
5.97861e-06
-1.47578e-07
5.99063e-06
-1.49053e-07
6.00264e-06
-1.50282e-07
6.01462e-06
-1.51243e-07
6.02655e-06
-1.51917e-07
6.0384e-06
-1.52285e-07
6.05014e-06
-1.52334e-07
6.06174e-06
-1.5205e-07
6.0732e-06
-1.51418e-07
6.08447e-06
-1.50429e-07
6.09553e-06
-1.49068e-07
6.10636e-06
-1.47327e-07
6.11695e-06
-1.45191e-07
6.12726e-06
-1.42652e-07
6.13727e-06
-1.39697e-07
6.14699e-06
-1.36316e-07
6.15638e-06
-1.32498e-07
6.16545e-06
-1.28231e-07
6.17419e-06
-1.23507e-07
6.1826e-06
-1.18314e-07
6.19067e-06
-1.12643e-07
6.19844e-06
-1.06487e-07
6.20591e-06
-9.98384e-08
6.21312e-06
-9.26912e-08
6.2201e-06
-8.50422e-08
6.2269e-06
-7.68904e-08
6.23358e-06
-6.82382e-08
6.24021e-06
-5.90916e-08
6.24688e-06
-4.94612e-08
6.25368e-06
-3.93632e-08
6.26074e-06
-2.88197e-08
6.26817e-06
-1.78595e-08
6.27612e-06
-6.51743e-09
6.28472e-06
5.16098e-09
6.29415e-06
1.71132e-08
6.30455e-06
2.92707e-08
6.31609e-06
4.15585e-08
6.32894e-06
5.38921e-08
6.34324e-06
6.61783e-08
6.35911e-06
7.83172e-08
6.37667e-06
9.02034e-08
6.39597e-06
1.01729e-07
6.41704e-06
1.12788e-07
6.43985e-06
1.23278e-07
6.46435e-06
1.33105e-07
6.49039e-06
1.42193e-07
6.51783e-06
1.50481e-07
1.57942e-07
6.54644e-06
6.00556e-06
-2.32675e-08
6.00952e-06
-4.56755e-08
6.0152e-06
-6.45624e-08
6.02236e-06
-8.06005e-08
6.03081e-06
-9.42183e-08
6.04034e-06
-1.05715e-07
6.05079e-06
-1.15321e-07
6.06199e-06
-1.23216e-07
6.07381e-06
-1.29539e-07
6.08609e-06
-1.34408e-07
6.09873e-06
-1.3794e-07
6.11161e-06
-1.40268e-07
6.12461e-06
-1.41547e-07
6.13766e-06
-1.41961e-07
6.15067e-06
-1.41716e-07
6.16359e-06
-1.41029e-07
6.17637e-06
-1.40115e-07
6.18899e-06
-1.39175e-07
6.20144e-06
-1.38378e-07
6.21371e-06
-1.37858e-07
6.22584e-06
-1.37705e-07
6.23783e-06
-1.37968e-07
6.24971e-06
-1.38658e-07
6.26152e-06
-1.39754e-07
6.27327e-06
-1.4121e-07
6.285e-06
-1.42965e-07
6.29673e-06
-1.44945e-07
6.30847e-06
-1.47076e-07
6.32023e-06
-1.49284e-07
6.33201e-06
-1.51499e-07
6.34382e-06
-1.53658e-07
6.35565e-06
-1.55706e-07
6.36749e-06
-1.57594e-07
6.37933e-06
-1.59281e-07
6.39114e-06
-1.60733e-07
6.40291e-06
-1.6192e-07
6.41462e-06
-1.62818e-07
6.42625e-06
-1.63406e-07
6.43777e-06
-1.63666e-07
6.44916e-06
-1.63583e-07
6.46039e-06
-1.63142e-07
6.47144e-06
-1.62333e-07
6.4823e-06
-1.61142e-07
6.49293e-06
-1.5956e-07
6.50333e-06
-1.57577e-07
6.51346e-06
-1.55183e-07
6.52332e-06
-1.5237e-07
6.5329e-06
-1.49129e-07