/*--------------------------------*- C++ -*----------------------------------*\
| =========                 |                                                 |
| \\      /  F ield         | OpenFOAM: The Open Source CFD Toolbox           |
|  \\    /   O peration     | Version:  2112                                  |
|   \\  /    A nd           | Website:  www.openfoam.com                      |
|    \\/     M anipulation  |                                                 |
\*---------------------------------------------------------------------------*/
FoamFile
{
    version     2.0;
    format      ascii;
    arch        "LSB;label=32;scalar=64";
    class       volScalarField;
    location    "2";
    object      T;
}
// * * * * * * * * * * * * * * * * * * * * * * * * * * * * * * * * * * * * * //

dimensions      [0 0 0 1 0 0 0];

internalField   nonuniform List<scalar> 
12013
(
300.001
300.004
300.006
300.009
300.012
300.015
300.019
300.022
300.026
300.03
300.035
300.04
300.045
300.051
300.057
300.063
300.07
300.077
300.085
300.094
300.103
300.112
300.122
300.133
300.144
300.156
300.168
300.182
300.195
300.21
300.225
300.241
300.258
300.275
300.294
300.313
300.333
300.353
300.375
300.397
300.42
300.444
300.469
300.495
300.521
300.549
300.577
300.607
300.637
300.669
300.701
300.735
300.769
300.805
300.841
300.879
300.918
300.958
300.999
301.042
301.085
301.131
301.177
301.225
301.274
301.325
301.378
301.433
301.489
301.547
301.608
301.671
301.737
301.805
301.877
301.954
302.034
302.121
302.215
302.32
302.441
300.001
300.004
300.006
300.009
300.012
300.015
300.019
300.022
300.026
300.03
300.035
300.04
300.045
300.051
300.057
300.063
300.07
300.077
300.085
300.094
300.103
300.112
300.122
300.133
300.144
300.156
300.168
300.182
300.195
300.21
300.225
300.241
300.258
300.275
300.294
300.313
300.332
300.353
300.375
300.397
300.42
300.444
300.469
300.495
300.521
300.549
300.577
300.607
300.637
300.669
300.701
300.734
300.769
300.804
300.841
300.879
300.918
300.958
300.999
301.041
301.085
301.13
301.176
301.224
301.274
301.325
301.377
301.432
301.488
301.546
301.606
301.669
301.735
301.803
301.874
301.95
302.029
302.114
302.206
302.304
302.412
300.001
300.004
300.006
300.009
300.012
300.015
300.019
300.022
300.026
300.03
300.035
300.04
300.045
300.051
300.057
300.063
300.07
300.077
300.085
300.094
300.103
300.112
300.122
300.133
300.144
300.156
300.168
300.182
300.195
300.21
300.225
300.241
300.258
300.275
300.294
300.313
300.332
300.353
300.374
300.397
300.42
300.444
300.469
300.494
300.521
300.549
300.577
300.606
300.637
300.668
300.701
300.734
300.768
300.804
300.84
300.878
300.917
300.957
300.998
301.04
301.084
301.129
301.175
301.223
301.272
301.323
301.375
301.429
301.485
301.543
301.603
301.665
301.73
301.797
301.868
301.942
302.019
302.101
302.187
302.278
302.373
300.001
300.004
300.006
300.009
300.012
300.015
300.019
300.022
300.026
300.03
300.035
300.04
300.045
300.051
300.057
300.063
300.07
300.077
300.085
300.094
300.103
300.112
300.122
300.133
300.144
300.156
300.168
300.181
300.195
300.21
300.225
300.241
300.258
300.275
300.293
300.312
300.332
300.353
300.374
300.396
300.419
300.443
300.468
300.494
300.521
300.548
300.577
300.606
300.636
300.668
300.7
300.733
300.768
300.803
300.839
300.877
300.916
300.956
300.997
301.039
301.082
301.127
301.173
301.221
301.27
301.32
301.372
301.426
301.481
301.538
301.598
301.659
301.723
301.789
301.857
301.929
302.004
302.081
302.162
302.245
302.33
300.001
300.004
300.006
300.009
300.012
300.015
300.019
300.022
300.026
300.03
300.035
300.04
300.045
300.051
300.057
300.063
300.07
300.077
300.085
300.094
300.102
300.112
300.122
300.133
300.144
300.156
300.168
300.181
300.195
300.21
300.225
300.241
300.257
300.275
300.293
300.312
300.332
300.352
300.374
300.396
300.419
300.443
300.468
300.493
300.52
300.547
300.576
300.605
300.635
300.667
300.699
300.732
300.766
300.802
300.838
300.876
300.914
300.954
300.995
301.037
301.08
301.124
301.17
301.217
301.266
301.316
301.367
301.42
301.475
301.531
301.59
301.65
301.712
301.776
301.843
301.912
301.983
302.056
302.131
302.207
302.283
300.001
300.004
300.006
300.009
300.012
300.015
300.019
300.022
300.026
300.03
300.035
300.04
300.045
300.051
300.057
300.063
300.07
300.077
300.085
300.093
300.102
300.112
300.122
300.132
300.144
300.155
300.168
300.181
300.195
300.209
300.225
300.241
300.257
300.275
300.293
300.312
300.331
300.352
300.373
300.395
300.418
300.442
300.467
300.493
300.519
300.547
300.575
300.604
300.634
300.665
300.698
300.731
300.765
300.8
300.836
300.873
300.912
300.951
300.992
301.033
301.076
301.12
301.166
301.213
301.261
301.31
301.361
301.413
301.467
301.522
301.579
301.638
301.698
301.761
301.825
301.89
301.957
302.026
302.095
302.165
302.235
300.001
300.004
300.006
300.009
300.012
300.015
300.019
300.022
300.026
300.03
300.035
300.04
300.045
300.051
300.057
300.063
300.07
300.077
300.085
300.093
300.102
300.112
300.122
300.132
300.143
300.155
300.168
300.181
300.195
300.209
300.224
300.24
300.257
300.274
300.292
300.311
300.331
300.351
300.373
300.395
300.418
300.441
300.466
300.492
300.518
300.545
300.574
300.603
300.633
300.664
300.696
300.729
300.763
300.798
300.834
300.871
300.909
300.948
300.988
301.029
301.072
301.116
301.16
301.206
301.254
301.302
301.352
301.404
301.456
301.51
301.566
301.623
301.681
301.741
301.802
301.864
301.928
301.992
302.056
302.12
302.184
300.001
300.004
300.006
300.009
300.012
300.015
300.019
300.022
300.026
300.03
300.035
300.04
300.045
300.05
300.056
300.063
300.07
300.077
300.085
300.093
300.102
300.111
300.121
300.132
300.143
300.155
300.167
300.181
300.194
300.209
300.224
300.24
300.256
300.274
300.292
300.31
300.33
300.351
300.372
300.394
300.417
300.44
300.465
300.49
300.517
300.544
300.572
300.601
300.631
300.662
300.693
300.726
300.76
300.794
300.83
300.867
300.905
300.943
300.983
301.024
301.066
301.109
301.153
301.199
301.245
301.293
301.342
301.392
301.443
301.496
301.55
301.605
301.661
301.718
301.776
301.834
301.894
301.954
302.013
302.073
302.131
300.001
300.004
300.006
300.009
300.012
300.015
300.019
300.022
300.026
300.03
300.035
300.04
300.045
300.05
300.056
300.063
300.07
300.077
300.085
300.093
300.102
300.111
300.121
300.132
300.143
300.155
300.167
300.18
300.194
300.208
300.223
300.239
300.256
300.273
300.291
300.31
300.329
300.35
300.371
300.393
300.415
300.439
300.463
300.489
300.515
300.542
300.57
300.599
300.628
300.659
300.69
300.723
300.756
300.791
300.826
300.862
300.9
300.938
300.977
301.018
301.059
301.101
301.145
301.189
301.235
301.282
301.329
301.378
301.428
301.479
301.53
301.583
301.637
301.691
301.746
301.801
301.857
301.912
301.968
302.023
302.077
300.001
300.004
300.006
300.009
300.012
300.015
300.018
300.022
300.026
300.03
300.035
300.039
300.045
300.05
300.056
300.063
300.069
300.077
300.085
300.093
300.102
300.111
300.121
300.131
300.143
300.154
300.167
300.18
300.193
300.208
300.223
300.238
300.255
300.272
300.29
300.309
300.328
300.348
300.369
300.391
300.414
300.437
300.462
300.487
300.513
300.539
300.567
300.596
300.625
300.655
300.687
300.719
300.752
300.786
300.821
300.857
300.893
300.931
300.97
301.01
301.05
301.092
301.134
301.178
301.222
301.268
301.314
301.361
301.409
301.458
301.508
301.558
301.609
301.661
301.712
301.764
301.816
301.868
301.92
301.971
302.021
300.001
300.004
300.006
300.009
300.012
300.015
300.018
300.022
300.026
300.03
300.035
300.039
300.045
300.05
300.056
300.062
300.069
300.076
300.084
300.093
300.101
300.111
300.121
300.131
300.142
300.154
300.166
300.179
300.193
300.207
300.222
300.237
300.254
300.271
300.289
300.307
300.327
300.347
300.368
300.389
300.412
300.435
300.459
300.484
300.51
300.536
300.564
300.592
300.621
300.651
300.682
300.714
300.747
300.78
300.815
300.85
300.886
300.923
300.961
301
301.04
301.08
301.122
301.164
301.207
301.251
301.296
301.342
301.388
301.435
301.482
301.53
301.578
301.627
301.676
301.725
301.773
301.822
301.87
301.917
301.964
300.001
300.004
300.006
300.009
300.012
300.015
300.018
300.022
300.026
300.03
300.034
300.039
300.044
300.05
300.056
300.062
300.069
300.076
300.084
300.092
300.101
300.11
300.12
300.13
300.141
300.153
300.165
300.178
300.192
300.206
300.221
300.236
300.253
300.27
300.287
300.306
300.325
300.345
300.366
300.387
300.409
300.433
300.456
300.481
300.507
300.533
300.56
300.588
300.617
300.646
300.677
300.708
300.74
300.773
300.807
300.842
300.877
300.914
300.951
300.989
301.027
301.067
301.107
301.148
301.19
301.233
301.276
301.319
301.364
301.408
301.453
301.499
301.545
301.59
301.636
301.682
301.727
301.773
301.817
301.861
301.905
300.001
300.004
300.006
300.009
300.012
300.015
300.018
300.022
300.026
300.03
300.034
300.039
300.044
300.05
300.056
300.062
300.069
300.076
300.084
300.092
300.1
300.11
300.119
300.13
300.141
300.152
300.164
300.177
300.191
300.205
300.22
300.235
300.251
300.268
300.286
300.304
300.323
300.343
300.363
300.385
300.407
300.429
300.453
300.477
300.503
300.529
300.555
300.583
300.611
300.64
300.67
300.701
300.733
300.765
300.798
300.832
300.867
300.902
300.939
300.975
301.013
301.051
301.09
301.13
301.17
301.211
301.252
301.294
301.336
301.379
301.422
301.465
301.508
301.551
301.594
301.636
301.679
301.721
301.763
301.804
301.844
300.001
300.004
300.006
300.009
300.012
300.015
300.018
300.022
300.026
300.03
300.034
300.039
300.044
300.049
300.055
300.062
300.068
300.075
300.083
300.091
300.1
300.109
300.119
300.129
300.14
300.151
300.163
300.176
300.189
300.203
300.218
300.233
300.249
300.266
300.284
300.302
300.32
300.34
300.36
300.381
300.403
300.426
300.449
300.473
300.498
300.524
300.55
300.577
300.605
300.634
300.663
300.693
300.724
300.756
300.788
300.821
300.855
300.889
300.924
300.96
300.997
301.034
301.071
301.109
301.148
301.187
301.226
301.266
301.306
301.347
301.387
301.427
301.468
301.508
301.549
301.589
301.628
301.667
301.706
301.744
301.782
300.001
300.004
300.006
300.009
300.012
300.015
300.018
300.022
300.025
300.03
300.034
300.039
300.044
300.049
300.055
300.061
300.068
300.075
300.083
300.091
300.099
300.108
300.118
300.128
300.139
300.15
300.162
300.175
300.188
300.202
300.216
300.232
300.247
300.264
300.281
300.299
300.318
300.337
300.357
300.378
300.399
300.421
300.444
300.468
300.492
300.518
300.543
300.57
300.597
300.625
300.654
300.684
300.714
300.745
300.776
300.808
300.841
300.874
300.908
300.943
300.978
301.014
301.05
301.086
301.123
301.16
301.198
301.235
301.273
301.311
301.349
301.388
301.426
301.463
301.501
301.538
301.575
301.612
301.648
301.683
301.718
300.001
300.004
300.006
300.009
300.012
300.015
300.018
300.022
300.025
300.029
300.034
300.038
300.043
300.049
300.055
300.061
300.067
300.074
300.082
300.09
300.098
300.107
300.117
300.127
300.138
300.149
300.161
300.173
300.186
300.2
300.214
300.229
300.245
300.261
300.278
300.296
300.314
300.333
300.353
300.373
300.394
300.416
300.439
300.462
300.486
300.511
300.536
300.562
300.589
300.616
300.644
300.673
300.702
300.732
300.762
300.793
300.825
300.857
300.89
300.923
300.957
300.991
301.025
301.06
301.095
301.131
301.166
301.202
301.238
301.273
301.309
301.345
301.381
301.416
301.451
301.486
301.52
301.554
301.588
301.621
301.653
300.001
300.004
300.006
300.009
300.012
300.015
300.018
300.021
300.025
300.029
300.033
300.038
300.043
300.048
300.054
300.06
300.067
300.074
300.081
300.089
300.098
300.106
300.116
300.126
300.136
300.148
300.159
300.171
300.184
300.198
300.212
300.227
300.242
300.258
300.275
300.292
300.31
300.329
300.348
300.368
300.389
300.41
300.432
300.455
300.479
300.503
300.527
300.553
300.579
300.605
300.632
300.66
300.688
300.717
300.747
300.777
300.807
300.838
300.87
300.901
300.934
300.966
300.999
301.032
301.065
301.098
301.132
301.166
301.199
301.233
301.266
301.3
301.333
301.366
301.399
301.431
301.463
301.495
301.526
301.557
301.587
300.001
300.004
300.006
300.009
300.011
300.014
300.018
300.021
300.025
300.029
300.033
300.038
300.043
300.048
300.054
300.06
300.066
300.073
300.08
300.088
300.096
300.105
300.115
300.124
300.135
300.146
300.157
300.169
300.182
300.195
300.209
300.224
300.239
300.255
300.271
300.288
300.306
300.324
300.343
300.363
300.383
300.404
300.425
300.447
300.47
300.493
300.517
300.542
300.567
300.593
300.619
300.646
300.673
300.701
300.729
300.758
300.787
300.817
300.847
300.877
300.908
300.939
300.97
301.001
301.032
301.064
301.095
301.127
301.158
301.19
301.221
301.252
301.283
301.314
301.345
301.375
301.404
301.434
301.463
301.491
301.519
300.001
300.003
300.006
300.009
300.011
300.014
300.017
300.021
300.025
300.028
300.033
300.037
300.042
300.047
300.053
300.059
300.065
300.072
300.079
300.087
300.095
300.104
300.113
300.123
300.133
300.144
300.155
300.167
300.179
300.192
300.206
300.22
300.235
300.25
300.266
300.283
300.3
300.318
300.337
300.356
300.376
300.396
300.417
300.438
300.46
300.483
300.506
300.53
300.554
300.579
300.604
300.63
300.656
300.683
300.71
300.738
300.765
300.793
300.822
300.851
300.88
300.909
300.938
300.968
300.997
301.027
301.056
301.086
301.115
301.145
301.174
301.203
301.232
301.26
301.288
301.316
301.344
301.371
301.398
301.424
301.45
300.001
300.003
300.006
300.008
300.011
300.014
300.017
300.021
300.024
300.028
300.032
300.037
300.042
300.047
300.052
300.058
300.064
300.071
300.078
300.086
300.094
300.102
300.111
300.121
300.131
300.141
300.152
300.164
300.176
300.189
300.202
300.216
300.231
300.246
300.261
300.278
300.294
300.312
300.33
300.348
300.367
300.387
300.407
300.428
300.449
300.471
300.494
300.516
300.54
300.563
300.588
300.612
300.637
300.663
300.689
300.715
300.741
300.768
300.795
300.822
300.849
300.877
300.904
300.932
300.959
300.987
301.015
301.042
301.07
301.097
301.124
301.151
301.178
301.204
301.231
301.256
301.282
301.307
301.332
301.357
301.381
300.001
300.003
300.006
300.008
300.011
300.014
300.017
300.02
300.024
300.028
300.032
300.036
300.041
300.046
300.051
300.057
300.063
300.07
300.077
300.084
300.092
300.1
300.109
300.119
300.128
300.139
300.15
300.161
300.173
300.185
300.198
300.212
300.226
300.24
300.256
300.271
300.288
300.304
300.322
300.34
300.358
300.377
300.397
300.417
300.437
300.458
300.479
300.501
300.524
300.546
300.569
300.593
300.617
300.641
300.665
300.69
300.715
300.74
300.765
300.791
300.817
300.842
300.868
300.894
300.92
300.945
300.971
300.997
301.022
301.048
301.073
301.098
301.122
301.147
301.171
301.195
301.219
301.242
301.265
301.287
301.31
300.001
300.003
300.006
300.008
300.011
300.014
300.017
300.02
300.023
300.027
300.031
300.035
300.04
300.045
300.05
300.056
300.062
300.068
300.075
300.083
300.09
300.098
300.107
300.116
300.126
300.136
300.146
300.157
300.169
300.181
300.193
300.206
300.22
300.234
300.249
300.264
300.28
300.296
300.313
300.33
300.348
300.366
300.385
300.404
300.423
300.443
300.464
300.485
300.506
300.527
300.549
300.572
300.594
300.617
300.64
300.663
300.687
300.71
300.734
300.758
300.782
300.806
300.83
300.854
300.878
300.902
300.925
300.949
300.973
300.996
301.019
301.043
301.065
301.088
301.11
301.132
301.154
301.175
301.197
301.217
301.238
300.001
300.003
300.006
300.008
300.011
300.013
300.016
300.02
300.023
300.027
300.031
300.035
300.039
300.044
300.049
300.055
300.061
300.067
300.074
300.081
300.088
300.096
300.104
300.113
300.122
300.132
300.142
300.153
300.164
300.176
300.188
300.201
300.214
300.227
300.242
300.256
300.271
300.287
300.303
300.319
300.336
300.354
300.372
300.39
300.408
300.427
300.447
300.466
300.487
300.507
300.528
300.548
300.57
300.591
300.613
300.634
300.656
300.678
300.7
300.723
300.745
300.767
300.789
300.812
300.834
300.856
300.878
300.9
300.922
300.943
300.965
300.986
301.007
301.028
301.048
301.068
301.088
301.108
301.128
301.147
301.165
300.001
300.003
300.005
300.008
300.01
300.013
300.016
300.019
300.022
300.026
300.03
300.034
300.038
300.043
300.048
300.053
300.059
300.065
300.072
300.078
300.086
300.093
300.101
300.11
300.119
300.128
300.138
300.148
300.159
300.17
300.182
300.194
300.207
300.22
300.233
300.247
300.262
300.277
300.292
300.308
300.324
300.34
300.357
300.374
300.392
300.41
300.428
300.447
300.466
300.485
300.504
300.524
300.543
300.563
300.584
300.604
300.624
300.645
300.665
300.686
300.706
300.727
300.747
300.768
300.788
300.809
300.829
300.849
300.869
300.889
300.909
300.928
300.947
300.966
300.985
301.004
301.022
301.04
301.058
301.075
301.092
300.001
300.003
300.005
300.008
300.01
300.013
300.016
300.019
300.022
300.025
300.029
300.033
300.037
300.042
300.047
300.052
300.057
300.063
300.069
300.076
300.083
300.09
300.098
300.106
300.115
300.124
300.133
300.143
300.153
300.164
300.175
300.187
300.199
300.211
300.224
300.238
300.251
300.265
300.28
300.295
300.31
300.325
300.341
300.358
300.374
300.391
300.408
300.425
300.443
300.461
300.479
300.497
300.516
300.534
300.553
300.572
300.59
300.609
300.628
300.647
300.666
300.685
300.704
300.723
300.742
300.76
300.779
300.797
300.815
300.833
300.851
300.869
300.887
300.904
300.921
300.938
300.955
300.971
300.988
301.003
301.019
300.001
300.003
300.005
300.007
300.01
300.012
300.015
300.018
300.021
300.024
300.028
300.032
300.036
300.04
300.045
300.05
300.055
300.061
300.067
300.073
300.08
300.087
300.094
300.102
300.11
300.119
300.128
300.137
300.147
300.157
300.168
300.179
300.19
300.202
300.214
300.227
300.24
300.253
300.267
300.281
300.295
300.31
300.324
300.34
300.355
300.371
300.387
300.403
300.419
300.436
300.452
300.469
300.486
300.503
300.521
300.538
300.555
300.573
300.59
300.607
300.625
300.642
300.659
300.676
300.693
300.71
300.727
300.744
300.761
300.777
300.793
300.81
300.826
300.841
300.857
300.872
300.887
300.902
300.917
300.932
300.946
300.001
300.003
300.005
300.007
300.009
300.012
300.014
300.017
300.02
300.023
300.027
300.031
300.035
300.039
300.043
300.048
300.053
300.058
300.064
300.07
300.077
300.083
300.09
300.098
300.106
300.114
300.122
300.131
300.14
300.15
300.16
300.17
300.181
300.192
300.204
300.215
300.227
300.24
300.253
300.266
300.279
300.292
300.306
300.32
300.335
300.349
300.364
300.379
300.394
300.409
300.425
300.44
300.456
300.471
300.487
300.503
300.519
300.534
300.55
300.566
300.582
300.598
300.613
300.629
300.644
300.66
300.675
300.69
300.705
300.72
300.735
300.75
300.764
300.778
300.792
300.806
300.82
300.833
300.847
300.86
300.873
300.001
300.003
300.005
300.007
300.009
300.011
300.014
300.017
300.019
300.022
300.026
300.029
300.033
300.037
300.041
300.046
300.051
300.056
300.061
300.067
300.073
300.079
300.086
300.093
300.1
300.108
300.116
300.124
300.133
300.142
300.151
300.161
300.171
300.181
300.192
300.203
300.214
300.226
300.238
300.25
300.262
300.274
300.287
300.3
300.313
300.327
300.34
300.354
300.368
300.382
300.396
300.41
300.424
300.438
300.453
300.467
300.481
300.496
300.51
300.524
300.538
300.553
300.567
300.581
300.595
300.609
300.623
300.636
300.65
300.663
300.676
300.69
300.703
300.715
300.728
300.74
300.753
300.765
300.777
300.789
300.8
300.001
300.003
300.005
300.006
300.009
300.011
300.013
300.016
300.018
300.021
300.024
300.028
300.031
300.035
300.039
300.043
300.048
300.053
300.058
300.063
300.069
300.075
300.081
300.088
300.095
300.102
300.109
300.117
300.125
300.134
300.142
300.151
300.16
300.17
300.18
300.19
300.2
300.211
300.222
300.233
300.244
300.256
300.267
300.279
300.291
300.303
300.316
300.328
300.34
300.353
300.366
300.379
300.391
300.404
300.417
300.43
300.443
300.456
300.469
300.482
300.494
300.507
300.52
300.533
300.545
300.558
300.57
300.582
300.594
300.606
300.618
300.63
300.641
300.653
300.664
300.675
300.686
300.697
300.708
300.718
300.729
300.001
300.003
300.004
300.006
300.008
300.01
300.012
300.015
300.017
300.02
300.023
300.026
300.03
300.033
300.037
300.041
300.045
300.05
300.054
300.059
300.065
300.07
300.076
300.082
300.088
300.095
300.102
300.109
300.117
300.124
300.132
300.141
300.149
300.158
300.167
300.176
300.186
300.195
300.205
300.215
300.226
300.236
300.247
300.257
300.268
300.279
300.29
300.301
300.313
300.324
300.335
300.347
300.358
300.37
300.381
300.393
300.405
300.416
300.428
300.439
300.45
300.462
300.473
300.484
300.495
300.507
300.517
300.528
300.539
300.55
300.56
300.571
300.581
300.591
300.601
300.611
300.621
300.63
300.64
300.649
300.658
300.001
300.002
300.004
300.006
300.008
300.01
300.012
300.014
300.016
300.019
300.022
300.025
300.028
300.031
300.034
300.038
300.042
300.046
300.051
300.055
300.06
300.065
300.071
300.076
300.082
300.088
300.095
300.101
300.108
300.115
300.122
300.13
300.138
300.145
300.154
300.162
300.171
300.179
300.188
300.197
300.206
300.216
300.225
300.235
300.245
300.255
300.264
300.274
300.284
300.295
300.305
300.315
300.325
300.335
300.346
300.356
300.366
300.376
300.387
300.397
300.407
300.417
300.427
300.437
300.447
300.456
300.466
300.476
300.485
300.494
300.504
300.513
300.522
300.531
300.54
300.548
300.557
300.565
300.574
300.582
300.59
300.001
300.002
300.004
300.005
300.007
300.009
300.011
300.013
300.015
300.018
300.02
300.023
300.026
300.029
300.032
300.035
300.039
300.043
300.047
300.051
300.055
300.06
300.065
300.07
300.075
300.081
300.087
300.093
300.099
300.105
300.112
300.119
300.126
300.133
300.14
300.147
300.155
300.163
300.171
300.179
300.187
300.196
300.204
300.213
300.221
300.23
300.239
300.247
300.256
300.265
300.274
300.283
300.292
300.301
300.31
300.319
300.328
300.337
300.346
300.355
300.364
300.373
300.381
300.39
300.399
300.407
300.416
300.424
300.432
300.44
300.449
300.457
300.465
300.472
300.48
300.488
300.495
300.503
300.51
300.517
300.524
300.001
300.002
300.003
300.005
300.007
300.008
300.01
300.012
300.014
300.016
300.018
300.021
300.023
300.026
300.029
300.032
300.036
300.039
300.043
300.047
300.051
300.055
300.059
300.064
300.069
300.074
300.079
300.084
300.09
300.095
300.101
300.107
300.113
300.12
300.126
300.133
300.14
300.147
300.154
300.161
300.168
300.175
300.183
300.19
300.198
300.205
300.213
300.221
300.229
300.236
300.244
300.252
300.26
300.268
300.276
300.284
300.291
300.299
300.307
300.315
300.322
300.33
300.337
300.345
300.352
300.36
300.367
300.374
300.382
300.389
300.396
300.403
300.409
300.416
300.423
300.429
300.436
300.442
300.449
300.455
300.461
300.001
300.002
300.003
300.005
300.006
300.007
300.009
300.011
300.013
300.015
300.017
300.019
300.021
300.024
300.026
300.029
300.032
300.035
300.039
300.042
300.046
300.049
300.053
300.057
300.062
300.066
300.071
300.075
300.08
300.085
300.091
300.096
300.101
300.107
300.113
300.118
300.124
300.13
300.137
300.143
300.149
300.155
300.162
300.168
300.175
300.182
300.188
300.195
300.202
300.209
300.215
300.222
300.229
300.236
300.242
300.249
300.256
300.263
300.269
300.276
300.282
300.289
300.295
300.302
300.308
300.315
300.321
300.327
300.333
300.339
300.345
300.351
300.357
300.363
300.369
300.374
300.38
300.385
300.391
300.396
300.401
300.001
300.002
300.003
300.004
300.005
300.007
300.008
300.01
300.011
300.013
300.015
300.017
300.019
300.021
300.024
300.026
300.029
300.032
300.035
300.038
300.041
300.044
300.048
300.051
300.055
300.059
300.063
300.067
300.071
300.076
300.08
300.085
300.09
300.094
300.099
300.104
300.11
300.115
300.12
300.125
300.131
300.136
300.142
300.148
300.153
300.159
300.165
300.17
300.176
300.182
300.188
300.194
300.199
300.205
300.211
300.217
300.222
300.228
300.234
300.239
300.245
300.251
300.256
300.262
300.267
300.272
300.278
300.283
300.288
300.293
300.299
300.304
300.309
300.314
300.318
300.323
300.328
300.333
300.337
300.342
300.346
300
300.001
300.003
300.004
300.005
300.006
300.007
300.009
300.01
300.012
300.013
300.015
300.017
300.019
300.021
300.023
300.026
300.028
300.031
300.033
300.036
300.039
300.042
300.045
300.048
300.052
300.055
300.059
300.063
300.066
300.07
300.074
300.078
300.083
300.087
300.091
300.096
300.1
300.105
300.109
300.114
300.119
300.123
300.128
300.133
300.138
300.143
300.147
300.152
300.157
300.162
300.167
300.172
300.177
300.182
300.187
300.191
300.196
300.201
300.206
300.211
300.215
300.22
300.225
300.229
300.234
300.238
300.243
300.247
300.251
300.256
300.26
300.264
300.268
300.272
300.276
300.28
300.284
300.288
300.292
300.296
300
300.001
300.002
300.003
300.004
300.005
300.007
300.008
300.009
300.01
300.012
300.013
300.015
300.017
300.019
300.021
300.023
300.025
300.027
300.029
300.032
300.034
300.037
300.04
300.042
300.045
300.048
300.051
300.055
300.058
300.061
300.065
300.068
300.072
300.075
300.079
300.083
300.087
300.09
300.094
300.098
300.102
300.106
300.11
300.114
300.118
300.123
300.127
300.131
300.135
300.139
300.143
300.147
300.151
300.156
300.16
300.164
300.168
300.172
300.176
300.18
300.184
300.188
300.191
300.195
300.199
300.203
300.207
300.21
300.214
300.218
300.221
300.225
300.228
300.232
300.235
300.238
300.242
300.245
300.248
300.251
300
300.001
300.002
300.003
300.004
300.005
300.006
300.007
300.008
300.009
300.011
300.012
300.013
300.015
300.016
300.018
300.02
300.022
300.024
300.026
300.028
300.03
300.032
300.035
300.037
300.04
300.042
300.045
300.047
300.05
300.053
300.056
300.059
300.062
300.065
300.068
300.071
300.075
300.078
300.081
300.085
300.088
300.091
300.095
300.098
300.102
300.105
300.109
300.112
300.116
300.119
300.123
300.126
300.129
300.133
300.136
300.14
300.143
300.147
300.15
300.153
300.156
300.16
300.163
300.166
300.169
300.173
300.176
300.179
300.182
300.185
300.188
300.191
300.194
300.197
300.199
300.202
300.205
300.208
300.21
300.213
300
300.001
300.002
300.003
300.003
300.004
300.005
300.006
300.007
300.008
300.009
300.011
300.012
300.013
300.015
300.016
300.018
300.019
300.021
300.023
300.025
300.026
300.028
300.03
300.033
300.035
300.037
300.039
300.042
300.044
300.046
300.049
300.052
300.054
300.057
300.06
300.062
300.065
300.068
300.071
300.074
300.076
300.079
300.082
300.085
300.088
300.091
300.094
300.097
300.1
300.103
300.106
300.109
300.112
300.115
300.117
300.12
300.123
300.126
300.129
300.132
300.135
300.137
300.14
300.143
300.145
300.148
300.151
300.153
300.156
300.159
300.161
300.164
300.166
300.168
300.171
300.173
300.176
300.178
300.18
300.182
300
300.001
300.002
300.002
300.003
300.004
300.005
300.006
300.007
300.007
300.009
300.01
300.011
300.012
300.013
300.015
300.016
300.017
300.019
300.02
300.022
300.024
300.026
300.027
300.029
300.031
300.033
300.035
300.037
300.039
300.042
300.044
300.046
300.048
300.051
300.053
300.055
300.058
300.06
300.063
300.065
300.068
300.07
300.073
300.076
300.078
300.081
300.083
300.086
300.088
300.091
300.094
300.096
300.099
300.101
300.104
300.106
300.109
300.111
300.114
300.116
300.119
300.121
300.123
300.126
300.128
300.131
300.133
300.135
300.137
300.14
300.142
300.144
300.146
300.148
300.15
300.152
300.154
300.156
300.158
300.16
300
300.001
300.002
300.002
300.003
300.004
300.004
300.005
300.006
300.007
300.008
300.009
300.01
300.011
300.012
300.014
300.015
300.016
300.018
300.019
300.021
300.022
300.024
300.026
300.027
300.029
300.031
300.033
300.035
300.037
300.039
300.041
300.043
300.045
300.047
300.05
300.052
300.054
300.056
300.059
300.061
300.063
300.066
300.068
300.07
300.073
300.075
300.077
300.08
300.082
300.085
300.087
300.089
300.092
300.094
300.096
300.099
300.101
300.103
300.106
300.108
300.11
300.112
300.114
300.117
300.119
300.121
300.123
300.125
300.127
300.129
300.131
300.133
300.135
300.137
300.139
300.141
300.143
300.145
300.147
300.148
302.594
302.713
302.813
302.9
302.977
303.047
303.111
303.169
303.223
303.272
303.318
303.36
303.4
303.436
303.47
303.501
303.53
303.558
303.584
303.609
303.633
303.657
303.681
303.705
303.73
303.755
303.78
303.804
303.828
303.852
303.876
303.899
303.922
303.945
303.967
303.989
304.011
304.032
304.053
304.074
304.094
304.115
304.135
304.155
304.174
304.194
304.213
304.232
304.251
304.269
304.288
304.306
304.324
304.341
304.359
304.376
304.393
304.41
304.426
304.443
304.459
304.475
304.49
304.506
304.521
304.537
304.552
304.566
304.581
304.595
304.609
304.623
304.637
304.65
304.663
304.676
304.689
304.702
304.714
304.726
304.738
304.75
304.761
304.773
304.784
304.794
304.805
304.815
304.825
304.835
304.844
304.854
304.863
304.872
304.88
304.889
304.897
304.904
304.912
304.919
304.926
304.933
304.94
304.946
304.952
304.958
304.963
304.968
304.973
304.978
304.982
304.986
304.99
304.994
304.997
305
305.002
305.005
305.007
305.008
305.01
305.011
305.011
305.011
305.011
305.011
305.01
305.008
305.006
305.004
305.001
304.997
304.993
304.988
304.982
304.976
304.969
304.96
304.951
304.941
304.93
304.917
304.903
304.887
304.87
304.851
304.829
304.805
304.779
304.749
304.716
304.679
304.638
304.591
304.538
304.478
304.417
304.344
304.239
304.081
303.832
302.529
302.635
302.73
302.815
302.892
302.963
303.027
303.086
303.141
303.191
303.238
303.282
303.323
303.36
303.396
303.429
303.46
303.489
303.517
303.544
303.57
303.595
303.62
303.645
303.671
303.696
303.721
303.746
303.771
303.795
303.819
303.843
303.866
303.889
303.911
303.934
303.956
303.977
303.999
304.02
304.041
304.061
304.082
304.102
304.122
304.141
304.161
304.18
304.199
304.217
304.236
304.254
304.272
304.29
304.308
304.325
304.342
304.359
304.376
304.392
304.409
304.425
304.441
304.456
304.472
304.487
304.502
304.517
304.532
304.546
304.56
304.574
304.588
304.602
304.615
304.628
304.641
304.654
304.666
304.678
304.69
304.702
304.713
304.725
304.736
304.747
304.757
304.768
304.778
304.788
304.797
304.806
304.816
304.824
304.833
304.841
304.85
304.857
304.865
304.872
304.879
304.886
304.893
304.899
304.905
304.911
304.916
304.922
304.927
304.931
304.936
304.94
304.944
304.947
304.95
304.953
304.956
304.958
304.96
304.962
304.963
304.964
304.965
304.965
304.965
304.964
304.963
304.962
304.96
304.957
304.954
304.951
304.947
304.942
304.936
304.93
304.922
304.914
304.905
304.895
304.884
304.871
304.857
304.841
304.824
304.804
304.783
304.758
304.732
304.702
304.669
304.631
304.59
304.542
304.488
304.427
304.363
304.285
304.175
304.012
303.761
302.471
302.565
302.653
302.734
302.809
302.878
302.943
303.002
303.057
303.109
303.157
303.201
303.243
303.282
303.319
303.354
303.386
303.417
303.447
303.475
303.502
303.529
303.555
303.582
303.608
303.633
303.659
303.684
303.709
303.734
303.758
303.782
303.806
303.829
303.852
303.875
303.897
303.919
303.941
303.962
303.984
304.004
304.025
304.045
304.066
304.085
304.105