/*--------------------------------*- C++ -*----------------------------------*\
| =========                 |                                                 |
| \\      /  F ield         | OpenFOAM: The Open Source CFD Toolbox           |
|  \\    /   O peration     | Version:  2112                                  |
|   \\  /    A nd           | Website:  www.openfoam.com                      |
|    \\/     M anipulation  |                                                 |
\*---------------------------------------------------------------------------*/
FoamFile
{
    version     2.0;
    format      ascii;
    arch        "LSB;label=32;scalar=64";
    class       volVectorField;
    location    "2";
    object      U;
}
// * * * * * * * * * * * * * * * * * * * * * * * * * * * * * * * * * * * * * //

dimensions      [0 1 -1 0 0 0 0];

internalField   nonuniform List<vector> 
12013
(
(0.100017 -4.68977e-06 0)
(0.100086 -8.6498e-06 0)
(0.100196 -1.21951e-05 0)
(0.100338 -1.53138e-05 0)
(0.100505 -1.80957e-05 0)
(0.100696 -2.05896e-05 0)
(0.100905 -2.28204e-05 0)
(0.10113 -2.48039e-05 0)
(0.101367 -2.65491e-05 0)
(0.101615 -2.80623e-05 0)
(0.10187 -2.93529e-05 0)
(0.102131 -3.04374e-05 0)
(0.102395 -3.13413e-05 0)
(0.10266 -3.20995e-05 0)
(0.102927 -3.27568e-05 0)
(0.103193 -3.33627e-05 0)
(0.103459 -3.39693e-05 0)
(0.103725 -3.4626e-05 0)
(0.10399 -3.53767e-05 0)
(0.104257 -3.62565e-05 0)
(0.104526 -3.72901e-05 0)
(0.104798 -3.84912e-05 0)
(0.105073 -3.98644e-05 0)
(0.105353 -4.14052e-05 0)
(0.105639 -4.31023e-05 0)
(0.105931 -4.49399e-05 0)
(0.106229 -4.68996e-05 0)
(0.106535 -4.89608e-05 0)
(0.106848 -5.11036e-05 0)
(0.107168 -5.33085e-05 0)
(0.107495 -5.55562e-05 0)
(0.10783 -5.78303e-05 0)
(0.10817 -6.01143e-05 0)
(0.108518 -6.23932e-05 0)
(0.108871 -6.46534e-05 0)
(0.10923 -6.68807e-05 0)
(0.109593 -6.90615e-05 0)
(0.109961 -7.11824e-05 0)
(0.110332 -7.32289e-05 0)
(0.110706 -7.51862e-05 0)
(0.111083 -7.70375e-05 0)
(0.111461 -7.87657e-05 0)
(0.11184 -8.03507e-05 0)
(0.112218 -8.17719e-05 0)
(0.112596 -8.3005e-05 0)
(0.112972 -8.40237e-05 0)
(0.113344 -8.47982e-05 0)
(0.113713 -8.52953e-05 0)
(0.114076 -8.54766e-05 0)
(0.114433 -8.52995e-05 0)
(0.114781 -8.47153e-05 0)
(0.115121 -8.36674e-05 0)
(0.115449 -8.2091e-05 0)
(0.115765 -7.99113e-05 0)
(0.116067 -7.70405e-05 0)
(0.116351 -7.33762e-05 0)
(0.116616 -6.87972e-05 0)
(0.11686 -6.31596e-05 0)
(0.117079 -5.62903e-05 0)
(0.11727 -4.79819e-05 0)
(0.117428 -3.79805e-05 0)
(0.11755 -2.59751e-05 0)
(0.11763 -1.15797e-05 0)
(0.117662 5.69222e-06 0)
(0.117639 2.6472e-05 0)
(0.117552 5.15776e-05 0)
(0.117389 8.20785e-05 0)
(0.117138 0.000119404 0)
(0.116781 0.0001655 0)
(0.116296 0.000223076 0)
(0.115656 0.000295989 0)
(0.114823 0.000389869 0)
(0.113744 0.000513151 0)
(0.112348 0.000678835 0)
(0.110531 0.000907545 0)
(0.108142 0.00123294 0)
(0.104951 0.00171162 0)
(0.100585 0.00244392 0)
(0.0944464 0.003638 0)
(0.0857752 0.00588477 0)
(0.0759163 0.011872 0)
(0.100016 -1.43346e-05 0)
(0.100084 -2.6533e-05 0)
(0.100195 -3.74232e-05 0)
(0.100336 -4.69952e-05 0)
(0.100503 -5.55345e-05 0)
(0.100693 -6.31885e-05 0)
(0.100902 -7.00349e-05 0)
(0.101126 -7.61221e-05 0)
(0.101364 -8.14771e-05 0)
(0.101611 -8.61197e-05 0)
(0.101866 -9.00792e-05 0)
(0.102126 -9.34052e-05 0)
(0.10239 -9.61761e-05 0)
(0.102655 -9.85e-05 0)
(0.102921 -0.000100513 0)
(0.103187 -0.000102367 0)
(0.103452 -0.000104223 0)
(0.103717 -0.000106232 0)
(0.103982 -0.000108528 0)
(0.104249 -0.00011122 0)
(0.104516 -0.000114383 0)
(0.104787 -0.00011806 0)
(0.105062 -0.000122264 0)
(0.105341 -0.000126982 0)
(0.105626 -0.000132179 0)
(0.105916 -0.000137808 0)
(0.106214 -0.00014381 0)
(0.106518 -0.000150123 0)
(0.10683 -0.000156686 0)
(0.107149 -0.000163438 0)
(0.107474 -0.000170323 0)
(0.107807 -0.000177286 0)
(0.108147 -0.000184279 0)
(0.108492 -0.000191257 0)
(0.108844 -0.000198176 0)
(0.1092 -0.000204993 0)
(0.109562 -0.000211667 0)
(0.109928 -0.000218156 0)
(0.110297 -0.000224417 0)
(0.110669 -0.000230402 0)
(0.111044 -0.000236062 0)
(0.11142 -0.000241343 0)
(0.111796 -0.000246186 0)
(0.112172 -0.000250524 0)
(0.112548 -0.000254285 0)
(0.112921 -0.000257389 0)
(0.113291 -0.000259743 0)
(0.113657 -0.000261246 0)
(0.114017 -0.000261782 0)
(0.114371 -0.00026122 0)
(0.114717 -0.000259409 0)
(0.115054 -0.000256179 0)
(0.11538 -0.000251332 0)
(0.115693 -0.000244639 0)
(0.115992 -0.000235832 0)
(0.116274 -0.0002246 0)
(0.116537 -0.000210573 0)
(0.116778 -0.000193314 0)
(0.116995 -0.000172298 0)
(0.117184 -0.000146894 0)
(0.117342 -0.000116332 0)
(0.117463 -7.96723e-05 0)
(0.117543 -3.57475e-05 0)
(0.117577 1.69086e-05 0)
(0.117556 8.01817e-05 0)
(0.117473 0.000156508 0)
(0.117317 0.000249062 0)
(0.117077 0.000362062 0)
(0.116736 0.000501214 0)
(0.116274 0.000674384 0)
(0.115669 0.000892651 0)
(0.114886 0.00117195 0)
(0.113884 0.00153573 0)
(0.112607 0.00201929 0)
(0.11098 0.00267688 0)
(0.108901 0.00359326 0)
(0.106237 0.00490165 0)
(0.102809 0.00681062 0)
(0.0984076 0.00964385 0)
(0.0930713 0.0138218 0)
(0.0884823 0.0193438 0)
(0.100015 -2.442e-05 0)
(0.100083 -4.55588e-05 0)
(0.100192 -6.4316e-05 0)
(0.100333 -8.07966e-05 0)
(0.100499 -9.54957e-05 0)
(0.100689 -0.000108667 0)
(0.100897 -0.000120447 0)
(0.101121 -0.000130919 0)
(0.101357 -0.00014013 0)
(0.101604 -0.000148114 0)
(0.101858 -0.000154921 0)
(0.102117 -0.000160636 0)
(0.10238 -0.000165393 0)
(0.102644 -0.000169379 0)
(0.102909 -0.000172826 0)
(0.103174 -0.000175997 0)
(0.103439 -0.000179167 0)
(0.103703 -0.000182598 0)
(0.103967 -0.000186519 0)
(0.104231 -0.000191118 0)
(0.104498 -0.000196523 0)
(0.104767 -0.000202812 0)
(0.10504 -0.000210005 0)
(0.105317 -0.00021808 0)
(0.1056 -0.000226978 0)
(0.105889 -0.000236616 0)
(0.106184 -0.000246894 0)
(0.106486 -0.000257707 0)
(0.106795 -0.000268948 0)
(0.107111 -0.000280511 0)
(0.107434 -0.0002923 0)
(0.107764 -0.000304222 0)
(0.1081 -0.000316194 0)
(0.108442 -0.000328137 0)
(0.10879 -0.000339975 0)
(0.109144 -0.000351636 0)
(0.109501 -0.000363049 0)
(0.109863 -0.00037414 0)
(0.110229 -0.000384835 0)
(0.110597 -0.000395054 0)
(0.110967 -0.00040471 0)
(0.111338 -0.000413712 0)
(0.11171 -0.000421958 0)
(0.112082 -0.000429334 0)
(0.112452 -0.000435716 0)
(0.11282 -0.000440966 0)
(0.113185 -0.000444928 0)
(0.113546 -0.000447426 0)
(0.113901 -0.000448264 0)
(0.11425 -0.000447217 0)
(0.114591 -0.000444029 0)
(0.114922 -0.00043841 0)
(0.115243 -0.000430022 0)
(0.11555 -0.000418477 0)
(0.115844 -0.000403324 0)
(0.11612 -0.000384032 0)
(0.116378 -0.000359979 0)
(0.116615 -0.000330427 0)
(0.116828 -0.000294495 0)
(0.117013 -0.000251124 0)
(0.117168 -0.000199029 0)
(0.117287 -0.000136644 0)
(0.117367 -6.20321e-05 0)
(0.117402 2.7222e-05 0)
(0.117385 0.000134196 0)
(0.117309 0.000262835 0)
(0.117165 0.000418239 0)
(0.116942 0.000607103 0)
(0.116627 0.000838351 0)
(0.116205 0.00112407 0)
(0.115657 0.00148091 0)
(0.114958 0.00193215 0)
(0.114082 0.00251084 0)
(0.112993 0.00326452 0)
(0.111655 0.00426206 0)
(0.110027 0.00560285 0)
(0.10808 0.00742683 0)
(0.105813 0.00991914 0)
(0.103307 0.0132922 0)
(0.100889 0.0176508 0)
(0.0994794 0.0223695 0)
(0.100014 -3.48863e-05 0)
(0.100081 -6.57062e-05 0)
(0.100189 -9.28714e-05 0)
(0.100329 -0.000116755 0)
(0.100494 -0.000138044 0)
(0.100683 -0.000157114 0)
(0.10089 -0.000174164 0)
(0.101112 -0.000189317 0)
(0.101348 -0.000202642 0)
(0.101593 -0.000214188 0)
(0.101846 -0.000224029 0)
(0.102104 -0.000232285 0)
(0.102366 -0.000239149 0)
(0.102629 -0.000244892 0)
(0.102893 -0.000249849 0)
(0.103156 -0.000254399 0)
(0.103419 -0.00025894 0)
(0.103681 -0.000263848 0)
(0.103944 -0.00026946 0)
(0.104206 -0.000276043 0)
(0.104471 -0.000283788 0)
(0.104738 -0.000292804 0)
(0.105008 -0.000303123 0)
(0.105283 -0.000314712 0)
(0.105563 -0.000327489 0)
(0.105848 -0.000341332 0)
(0.10614 -0.000356098 0)
(0.106439 -0.000371633 0)
(0.106744 -0.000387783 0)
(0.107056 -0.000404397 0)
(0.107375 -0.000421331 0)
(0.1077 -0.000438455 0)
(0.108032 -0.000455646 0)
(0.108369 -0.000472788 0)
(0.108712 -0.000489774 0)
(0.10906 -0.000506497 0)
(0.109412 -0.000522856 0)
(0.109769 -0.000538743 0)
(0.110128 -0.000554051 0)
(0.11049 -0.000568663 0)
(0.110854 -0.000582457 0)
(0.111219 -0.000595299 0)
(0.111584 -0.00060704 0)
(0.111948 -0.000617521 0)
(0.112311 -0.00062656 0)
(0.112672 -0.00063396 0)
(0.11303 -0.000639496 0)
(0.113383 -0.000642918 0)
(0.11373 -0.000643943 0)
(0.114071 -0.000642251 0)
(0.114404 -0.000637478 0)
(0.114727 -0.000629208 0)
(0.11504 -0.000616963 0)
(0.11534 -0.000600193 0)
(0.115625 -0.000578257 0)
(0.115894 -0.00055041 0)
(0.116145 -0.000515775 0)
(0.116375 -0.000473318 0)
(0.116581 -0.000421808 0)
(0.116762 -0.000359773 0)
(0.116912 -0.000285435 0)
(0.117029 -0.000196636 0)
(0.117109 -9.07299e-05 0)
(0.117146 3.55574e-05 0)
(0.117135 0.000186342 0)
(0.11707 0.000366841 0)
(0.116943 0.000583713 0)
(0.116747 0.00084555 0)
(0.116471 0.00116357 0)
(0.116105 0.0015526 0)
(0.115636 0.00203239 0)
(0.115052 0.00262956 0)
(0.114339 0.00338011 0)
(0.113486 0.00433276 0)
(0.112488 0.00555281 0)
(0.111355 0.00712521 0)
(0.110122 0.00915318 0)
(0.108876 0.0117427 0)
(0.107783 0.014953 0)
(0.107128 0.0186589 0)
(0.107291 0.0222149 0)
(0.100013 -4.57579e-05 0)
(0.100079 -8.69707e-05 0)
(0.100186 -0.000123108 0)
(0.100324 -0.000154916 0)
(0.100488 -0.000183255 0)
(0.100675 -0.000208626 0)
(0.10088 -0.000231303 0)
(0.101102 -0.000251451 0)
(0.101336 -0.000269162 0)
(0.101579 -0.000284503 0)
(0.101831 -0.000297571 0)
(0.102087 -0.000308526 0)
(0.102347 -0.000317624 0)
(0.102609 -0.000325221 0)
(0.102871 -0.00033176 0)
(0.103132 -0.000337746 0)
(0.103393 -0.000343703 0)
(0.103653 -0.000350135 0)
(0.103913 -0.000357487 0)
(0.104174 -0.000366114 0)
(0.104436 -0.000376272 0)
(0.1047 -0.000388106 0)
(0.104967 -0.000401662 0)
(0.105238 -0.000416898 0)
(0.105514 -0.000433703 0)
(0.105795 -0.000451918 0)
(0.106083 -0.000471352 0)
(0.106377 -0.000491803 0)
(0.106677 -0.000513063 0)
(0.106984 -0.000534933 0)
(0.107297 -0.000557222 0)
(0.107617 -0.000579755 0)
(0.107942 -0.000602367 0)
(0.108274 -0.000624906 0)
(0.10861 -0.000647227 0)
(0.108951 -0.00066919 0)
(0.109296 -0.000690657 0)
(0.109645 -0.000711487 0)
(0.109996 -0.000731536 0)
(0.11035 -0.000750651 0)
(0.110706 -0.000768668 0)
(0.111062 -0.00078541 0)
(0.111418 -0.000800682 0)
(0.111774 -0.000814271 0)
(0.112127 -0.000825941 0)
(0.112479 -0.000835429 0)
(0.112826 -0.000842443 0)
(0.11317 -0.000846652 0)
(0.113507 -0.000847688 0)
(0.113838 -0.000845132 0)
(0.11416 -0.000838512 0)
(0.114473 -0.000827284 0)
(0.114775 -0.000810833 0)
(0.115065 -0.000788444 0)
(0.115341 -0.000759295 0)
(0.1156 -0.000722429 0)
(0.115842 -0.000676727 0)
(0.116064 -0.000620874 0)
(0.116263 -0.000553315 0)
(0.116437 -0.000472197 0)
(0.116583 -0.000375304 0)
(0.116698 -0.00025996 0)
(0.116779 -0.000122919 0)
(0.11682 3.97847e-05 0)
(0.116818 0.00023306 0)
(0.116769 0.000463031 0)
(0.116667 0.000737376 0)
(0.116505 0.00106579 0)
(0.11628 0.00146058 0)
(0.115984 0.00193749 0)
(0.115613 0.00251672 0)
(0.115163 0.00322416 0)
(0.114634 0.00409284 0)
(0.114033 0.00516433 0)
(0.113378 0.00648925 0)
(0.112703 0.00812553 0)
(0.112071 0.0101306 0)
(0.111583 0.0125406 0)
(0.111386 0.0153258 0)
(0.111659 0.0183057 0)
(0.112529 0.0210252 0)
(0.100012 -5.70547e-05 0)
(0.100076 -0.000109348 0)
(0.100182 -0.000155043 0)
(0.100318 -0.000195318 0)
(0.100481 -0.00023119 0)
(0.100666 -0.000263289 0)
(0.100869 -0.000291969 0)
(0.101089 -0.000317442 0)
(0.101321 -0.000339825 0)
(0.101563 -0.000359207 0)
(0.101812 -0.000375706 0)
(0.102067 -0.000389527 0)
(0.102324 -0.000400988 0)
(0.102584 -0.000410537 0)
(0.102844 -0.000418731 0)
(0.103103 -0.000426204 0)
(0.103361 -0.000433616 0)
(0.103619 -0.000441601 0)
(0.103876 -0.000450722 0)
(0.104134 -0.000461431 0)
(0.104392 -0.00047405 0)
(0.104653 -0.000488766 0)
(0.104916 -0.00050564 0)
(0.105183 -0.000524619 0)
(0.105455 -0.000545568 0)
(0.105731 -0.000568285 0)
(0.106013 -0.000592533 0)
(0.106302 -0.000618053 0)
(0.106596 -0.000644586 0)
(0.106896 -0.000671879 0)
(0.107203 -0.00069969 0)
(0.107515 -0.000727797 0)
(0.107833 -0.000755992 0)
(0.108157 -0.00078408 0)
(0.108485 -0.000811877 0)
(0.108817 -0.000839207 0)
(0.109154 -0.000865894 0)
(0.109493 -0.000891761 0)
(0.109835 -0.000916624 0)
(0.110179 -0.000940292 0)
(0.110524 -0.000962557 0)
(0.11087 -0.000983198 0)
(0.111216 -0.00100197 0)
(0.11156 -0.00101861 0)
(0.111903 -0.00103282 0)
(0.112242 -0.00104427 0)
(0.112578 -0.0010526 0)
(0.112909 -0.0010574 0)
(0.113235 -0.00105821 0)
(0.113553 -0.00105453 0)
(0.113863 -0.00104576 0)
(0.114164 -0.00103124 0)
(0.114454 -0.00101022 0)
(0.114732 -0.000981837 0)
(0.114996 -0.00094509 0)
(0.115244 -0.000898827 0)
(0.115476 -0.000841711 0)
(0.115688 -0.000772175 0)
(0.11588 -0.000688384 0)
(0.116048 -0.000588169 0)
(0.11619 -0.000468953 0)
(0.116303 -0.000327666 0)
(0.116386 -0.000160623 0)
(0.116434 3.66054e-05 0)
(0.116445 0.000269391 0)
(0.116416 0.000544304 0)
(0.116344 0.000869398 0)
(0.116226 0.00125456 0)
(0.11606 0.00171194 0)
(0.115844 0.00225647 0)
(0.115581 0.0029064 0)
(0.115273 0.00368386 0)
(0.114931 0.00461512 0)
(0.114572 0.00573043 0)
(0.114222 0.00706253 0)
(0.113926 0.00864267 0)
(0.113746 0.010492 0)
(0.113765 0.0126052 0)
(0.114084 0.0149224 0)
(0.114796 0.0172907 0)
(0.115929 0.0194293 0)
(0.100011 -6.87927e-05 0)
(0.100074 -0.000132836 0)
(0.100178 -0.000188688 0)
(0.100312 -0.000237989 0)
(0.100472 -0.000281897 0)
(0.100655 -0.000321171 0)
(0.100857 -0.00035625 0)
(0.101074 -0.000387395 0)
(0.101303 -0.000414753 0)
(0.101543 -0.000438433 0)
(0.10179 -0.000458581 0)
(0.102042 -0.000475443 0)
(0.102298 -0.000489406 0)
(0.102554 -0.000501009 0)
(0.102812 -0.000510929 0)
(0.103068 -0.000519934 0)
(0.103324 -0.000528827 0)
(0.103579 -0.000538381 0)
(0.103833 -0.000549282 0)
(0.104087 -0.000562084 0)
(0.104342 -0.000577182 0)
(0.104598 -0.00059481 0)
(0.104857 -0.000615043 0)
(0.105119 -0.000637825 0)
(0.105385 -0.00066299 0)
(0.105656 -0.000690298 0)
(0.105932 -0.000719459 0)
(0.106214 -0.00075016 0)
(0.106501 -0.000782083 0)
(0.106794 -0.000814919 0)
(0.107092 -0.000848373 0)
(0.107397 -0.000882171 0)
(0.107706 -0.000916058 0)
(0.10802 -0.000949795 0)
(0.108338 -0.000983157 0)
(0.108661 -0.00101593 0)
(0.108987 -0.00104789 0)
(0.109316 -0.00107882 0)
(0.109646 -0.00110851 0)
(0.109979 -0.00113672 0)
(0.110312 -0.0011632 0)
(0.110646 -0.00118767 0)
(0.110979 -0.00120984 0)
(0.11131 -0.0012294 0)
(0.11164 -0.00124599 0)
(0.111966 -0.00125922 0)
(0.112288 -0.00126864 0)
(0.112605 -0.00127378 0)
(0.112917 -0.0012741 0)
(0.113221 -0.00126898 0)
(0.113517 -0.00125774 0)
(0.113804 -0.0012396 0)
(0.114081 -0.00121367 0)
(0.114345 -0.00117897 0)
(0.114596 -0.00113433 0)
(0.114833 -0.00107843 0)
(0.115053 -0.00100976 0)
(0.115256 -0.000926535 0)
(0.115439 -0.000826713 0)
(0.115601 -0.00070789 0)
(0.115739 -0.000567247 0)
(0.115853 -0.000401468 0)
(0.11594 -0.00020664 0)
(0.115998 2.18581e-05 0)
(0.116025 0.000289489 0)
(0.116021 0.000602768 0)
(0.115984 0.000969473 0)
(0.115914 0.00139883 0)
(0.115812 0.00190175 0)
(0.115681 0.002491 0)
(0.115527 0.00318133 0)
(0.115358 0.00398944 0)
(0.115189 0.00493348 0)
(0.115039 0.00603205 0)
(0.11494 0.00730202 0)
(0.11493 0.00875455 0)
(0.115059 0.0103886 0)
(0.115387 0.0121808 0)
(0.115972 0.0140716 0)
(0.116856 0.0159519 0)
(0.118031 0.0176586 0)
(0.10001 -8.09882e-05 0)
(0.100072 -0.000157438 0)
(0.100173 -0.000224057 0)
(0.100305 -0.000282949 0)
(0.100463 -0.000335414 0)
(0.100644 -0.000382329 0)
(0.100842 -0.00042422 0)
(0.101057 -0.000461401 0)
(0.101284 -0.000494051 0)
(0.10152 -0.000522303 0)
(0.101765 -0.000546329 0)
(0.102014 -0.000566419 0)
(0.102266 -0.000583028 0)
(0.102521 -0.000596794 0)
(0.102775 -0.000608511 0)
(0.103029 -0.000619091 0)
(0.103281 -0.000629483 0)
(0.103533 -0.000640606 0)
(0.103783 -0.000653274 0)
(0.104033 -0.000668151 0)
(0.104284 -0.000685713 0)
(0.104535 -0.000706242 0)
(0.104789 -0.000729837 0)
(0.105046 -0.000756432 0)
(0.105306 -0.00078584 0)
(0.10557 -0.000817776 0)
(0.105839 -0.0008519 0)
(0.106113 -0.000887839 0)
(0.106392 -0.000925216 0)
(0.106677 -0.000963661 0)
(0.106967 -0.00100282 0)
(0.107261 -0.00104237 0)
(0.10756 -0.00108201 0)
(0.107864 -0.00112143 0)
(0.108172 -0.00116039 0)
(0.108483 -0.00119861 0)
(0.108797 -0.00123583 0)
(0.109114 -0.00127181 0)
(0.109432 -0.00130627 0)
(0.109751 -0.00133894 0)
(0.110071 -0.00136951 0)
(0.110391 -0.00139768 0)
(0.11071 -0.0014231 0)
(0.111027 -0.00144539 0)
(0.111342 -0.00146414 0)
(0.111653 -0.00147889 0)
(0.11196 -0.00148914 0)
(0.112262 -0.00149433 0)
(0.112558 -0.00149383 0)
(0.112846 -0.00148695 0)
(0.113127 -0.00147292 0)
(0.113399 -0.00145084 0)
(0.11366 -0.00141973 0)
(0.113911 -0.00137847 0)
(0.114148 -0.00132578 0)
(0.114372 -0.00126021 0)
(0.114581 -0.0011801 0)
(0.114774 -0.00108354 0)
(0.114949 -0.000968344 0)
(0.115105 -0.000831984 0)
(0.115241 -0.000671537 0)
(0.115356 -0.000483619 0)
(0.115449 -0.000264311 0)
(0.115519 -9.08331e-06 0)
(0.115565 0.000287218 0)
(0.115589 0.000630611 0)
(0.115589 0.00102804 0)
(0.11557 0.00148741 0)
(0.115533 0.00201764 0)
(0.115485 0.00262858 0)
(0.115433 0.00333084 0)
(0.115389 0.0041354 0)
(0.115367 0.00505283 0)
(0.115388 0.00609205 0)
(0.115477 0.0072584 0)
(0.115666 0.00855071 0)
(0.11599 0.0099573 0)
(0.116484 0.0114509 0)
(0.117182 0.0129836 0)
(0.118098 0.0144833 0)
(0.119215 0.0158579 0)
(0.100009 -9.36587e-05 0)
(0.10007 -0.000183156 0)
(0.100169 -0.00026116 0)
(0.100298 -0.000330217 0)
(0.100453 -0.000391769 0)
(0.100631 -0.000446802 0)
(0.100827 -0.000495932 0)
(0.101038 -0.000539529 0)
(0.101261 -0.000577804 0)
(0.101495 -0.000610914 0)
(0.101736 -0.000639061 0)
(0.101982 -0.000662579 0)
(0.102231 -0.000681991 0)
(0.102482 -0.000698033 0)
(0.102733 -0.000711624 0)
(0.102983 -0.000723818 0)
(0.103232 -0.000735717 0)
(0.10348 -0.00074839 0)
(0.103727 -0.00076279 0)
(0.103973 -0.000779695 0)
(0.104218 -0.000799668 0)
(0.104465 -0.000823046 0)
(0.104713 -0.000849953 0)
(0.104964 -0.000880324 0)
(0.105217 -0.000913944 0)
(0.105474 -0.00095049 0)
(0.105735 -0.000989566 0)
(0.106001 -0.00103074 0)
(0.106271 -0.00107358 0)
(0.106546 -0.00111764 0)
(0.106826 -0.00116251 0)
(0.10711 -0.00120781 0)
(0.107398 -0.00125318 0)
(0.10769 -0.00129828 0)
(0.107986 -0.00134278 0)
(0.108284 -0.0013864 0)
(0.108585 -0.00142881 0)
(0.108888 -0.00146973 0)
(0.109193 -0.00150884 0)
(0.109498 -0.00154581 0)
(0.109803 -0.00158031 0)
(0.110108 -0.00161198 0)
(0.110411 -0.00164041 0)
(0.110712 -0.00166517 0)
(0.111011 -0.0016858 0)
(0.111306 -0.00170177 0)
(0.111596 -0.00171253 0)
(0.111881 -0.00171744 0)
(0.11216 -0.00171581 0)
(0.112433 -0.00170686 0)
(0.112697 -0.00168973 0)
(0.112953 -0.00166346 0)
(0.113199 -0.00162697 0)
(0.113434 -0.00157905 0)
(0.113657 -0.00151834 0)
(0.113868 -0.0014433 0)
(0.114065 -0.00135219 0)
(0.114248 -0.00124305 0)
(0.114416 -0.00111365 0)
(0.114567 -0.000961434 0)
(0.114702 -0.000783543 0)
(0.11482 -0.000576703 0)
(0.11492 -0.000337217 0)
(0.115004 -6.09201e-05 0)
(0.115071 0.000256765 0)
(0.115123 0.000620969 0)
(0.115162 0.00103741 0)
(0.115192 0.00151227 0)
(0.115217 0.00205215 0)
(0.115244 0.00266381 0)
(0.115282 0.00335387 0)
(0.115341 0.00412828 0)
(0.115437 0.00499162 0)
(0.115585 0.005946 0)
(0.115805 0.0069897 0)
(0.11612 0.00811546 0)
(0.116552 0.00930847 0)
(0.117122 0.0105444 0)
(0.117844 0.011788 0)
(0.118722 0.0129938 0)
(0.11974 0.0141101 0)
(0.100007 -0.000106819 0)
(0.100068 -0.00020999 0)
(0.100164 -0.000299999 0)
(0.100291 -0.000379795 0)
(0.100443 -0.000450971 0)
(0.100617 -0.000514612 0)
(0.100809 -0.000571421 0)
(0.101017 -0.000621823 0)
(0.101237 -0.000666068 0)
(0.101467 -0.000704337 0)
(0.101704 -0.00073686 0)
(0.101946 -0.000764017 0)
(0.102192 -0.000786401 0)
(0.102439 -0.000804841 0)
(0.102686 -0.000820385 0)
(0.102933 -0.000834229 0)
(0.103178 -0.000847634 0)
(0.103421 -0.000861824 0)
(0.103663 -0.000877896 0)
(0.103905 -0.000896749 0)
(0.104145 -0.000919039 0)
(0.104386 -0.000945167 0)
(0.104628 -0.000975286 0)
(0.104872 -0.00100934 0)
(0.105118 -0.00104708 0)
(0.105367 -0.00108815 0)
(0.10562 -0.0011321 0)
(0.105876 -0.00117845 0)
(0.106137 -0.00122668 0)
(0.106402 -0.00127629 0)
(0.10667 -0.00132681 0)
(0.106943 -0.00137779 0)
(0.107219 -0.00142881 0)
(0.107498 -0.00147948 0)
(0.107781 -0.00152944 0)
(0.108066 -0.00157831 0)
(0.108353 -0.00162577 0)
(0.108641 -0.00167145 0)
(0.10893 -0.00171501 0)
(0.10922 -0.00175608 0)
(0.109509 -0.00179426 0)
(0.109797 -0.00182915 0)
(0.110084 -0.00186029 0)
(0.110368 -0.00188722 0)
(0.110649 -0.0019094 0)
(0.110927 -0.00192626 0)
(0.111199 -0.00193718 0)
(0.111467 -0.00194148 0)
(0.111729 -0.00193838 0)
(0.111983 -0.00192706 0)
(0.112231 -0.0019066 0)
(0.112469 -0.00187597 0)
(0.112699 -0.00183403 0)
(0.112919 -0.00177953 0)
(0.113128 -0.00171105 0)
(0.113326 -0.00162703 0)
(0.113512 -0.00152573 0)
(0.113686 -0.00140518 0)
(0.113846 -0.00126323 0)
(0.113994 -0.00109744 0)
(0.114128 -0.000905134 0)
(0.11425 -0.000683317 0)
(0.114359 -0.000428711 0)
(0.114456 -0.000137736 0)
(0.114544 0.000193436 0)
(0.114624 0.000568813 0)
(0.114699 0.000992677 0)
(0.114774 0.0014694 0)
(0.114853 0.00200329 0)
(0.114944 0.00259829 0)
(0.115055 0.00325769 0)
(0.115195 0.00398363 0)
(0.115377 0.00477654 0)
(0.115612 0.00563446 0)
(0.115916 0.00655218 0)
(0.116302 0.00752045 0)
(0.116783 0.0085252 0)
(0.11737 0.00954709 0)
(0.118069 0.0105617 0)
(0.118877 0.0115406 0)
(0.119783 0.0124549 0)
(0.100006 -0.00012048 0)
(0.100065 -0.000237934 0)
(0.10016 -0.000340565 0)
(0.100283 -0.000431675 0)
(0.100432 -0.000513012 0)
(0.100602 -0.000585753 0)
(0.10079 -0.000650685 0)
(0.100994 -0.000708293 0)
(0.10121 -0.000758862 0)
(0.101435 -0.0008026 0)
(0.101668 -0.000839768 0)
(0.101906 -0.000870787 0)
(0.102148 -0.000896319 0)
(0.102391 -0.000917289 0)
(0.102634 -0.000934867 0)
(0.102876 -0.000950398 0)
(0.103116 -0.000965299 0)
(0.103356 -0.000980956 0)
(0.103593 -0.000998614 0)
(0.103829 -0.0010193 0)
(0.104064 -0.00104377 0)
(0.104299 -0.0010725 0)
(0.104534 -0.00110567 0)
(0.10477 -0.00114324 0)
(0.105009 -0.00118495 0)
(0.105249 -0.0012304 0)
(0.105493 -0.00127908 0)
(0.105739 -0.00133045 0)
(0.105989 -0.00138393 0)
(0.106243 -0.00143896 0)
(0.106499 -0.00149498 0)
(0.10676 -0.00155149 0)
(0.107023 -0.00160801 0)
(0.107289 -0.00166409 0)
(0.107557 -0.00171931 0)
(0.107827 -0.00177325 0)
(0.108099 -0.00182552 0)
(0.108371 -0.00187572 0)
(0.108644 -0.00192346 0)
(0.108917 -0.00196832 0)
(0.10919 -0.00200987 0)
(0.10946 -0.00204765 0)
(0.109729 -0.00208117 0)
(0.109996 -0.00210989 0)
(0.110259 -0.00213326 0)
(0.110518 -0.00215064 0)
(0.110772 -0.00216137 0)
(0.111021 -0.00216471 0)
(0.111265 -0.00215986 0)
(0.111501 -0.00214593 0)
(0.111731 -0.00212198 0)
(0.111953 -0.00208693 0)
(0.112166 -0.00203964 0)
(0.11237 -0.00197882 0)
(0.112565 -0.00190307 0)
(0.11275 -0.00181087 0)
(0.112925 -0.00170052 0)
(0.11309 -0.00157017 0)
(0.113244 -0.00141781 0)
(0.113389 -0.00124122 0)
(0.113523 -0.00103804 0)
(0.113648 -0.000805693 0)
(0.113766 -0.000541449 0)
(0.113877 -0.000242437 0)
(0.113984 9.42996e-05 0)
(0.114089 0.000471598 0)
(0.114196 0.000892305 0)
(0.114309 0.00135911 0)
(0.114433 0.00187431 0)
(0.114575 0.00243963 0)
(0.11474 0.00305586 0)
(0.114939 0.0037226 0)
(0.115178 0.00443787 0)
(0.115467 0.00519769 0)
(0.115815 0.00599573 0)
(0.116231 0.00682301 0)
(0.116722 0.00766778 0)
(0.117293 0.00851561 0)
(0.117944 0.00934998 0)
(0.118671 0.0101534 0)
(0.119467 0.0109092 0)
(0.100005 -0.000134645 0)
(0.100063 -0.000266973 0)
(0.100155 -0.000382835 0)
(0.100275 -0.000485825 0)
(0.10042 -0.000577854 0)
(0.100586 -0.000660187 0)
(0.10077 -0.000733689 0)
(0.100969 -0.000798903 0)
(0.10118 -0.000856156 0)
(0.101401 -0.000905681 0)
(0.101629 -0.000947768 0)
(0.101862 -0.000982881 0)
(0.102099 -0.00101174 0)
(0.102337 -0.00103538 0)
(0.102575 -0.00105508 0)
(0.102812 -0.00107233 0)
(0.103048 -0.00108871 0)
(0.103282 -0.00110576 0)
(0.103514 -0.00112489 0)
(0.103744 -0.00114726 0)
(0.103973 -0.00117373 0)
(0.104201 -0.00120486 0)
(0.104429 -0.00124087 0)
(0.104658 -0.00128173 0)
(0.104887 -0.00132718 0)
(0.105119 -0.00137678 0)
(0.105352 -0.00142997 0)
(0.105588 -0.00148614 0)
(0.105827 -0.00154465 0)
(0.106068 -0.00160487 0)
(0.106313 -0.00166618 0)
(0.106559 -0.00172799 0)
(0.106809 -0.00178977 0)
(0.10706 -0.00185101 0)
(0.107313 -0.00191121 0)
(0.107568 -0.00196993 0)
(0.107823 -0.00202671 0)
(0.10808 -0.00208112 0)
(0.108336 -0.0021327 0)
(0.108591 -0.002181 0)
(0.108845 -0.00222554 0)
(0.109098 -0.00226582 0)
(0.109348 -0.0023013 0)
(0.109596 -0.00233143 0)
(0.10984 -0.00235558 0)
(0.11008 -0.0023731 0)
(0.110315 -0.00238329 0)
(0.110545 -0.00238537 0)
(0.11077 -0.00237851 0)
(0.110988 -0.00236182 0)
(0.1112 -0.00233431 0)
(0.111405 -0.00229494 0)
(0.111601 -0.00224255 0)
(0.11179 -0.0021759 0)
(0.111971 -0.00209365 0)
(0.112144 -0.00199435 0)
(0.112308 -0.00187644 0)
(0.112465 -0.00173824 0)
(0.112613 -0.00157796 0)
(0.112754 -0.00139372 0)
(0.112888 -0.00118353 0)
(0.113017 -0.000945317 0)
(0.113143 -0.000676984 0)
(0.113266 -0.00037641 0)
(0.113389 -4.15218e-05 0)
(0.113515 0.000329491 0)
(0.113648 0.000738142 0)
(0.11379 0.0011857 0)
(0.113948 0.00167293 0)
(0.114126 0.00219993 0)
(0.114329 0.0027659 0)
(0.114564 0.00336897 0)
(0.114836 0.00400602 0)
(0.115152 0.00467246 0)
(0.115517 0.00536217 0)
(0.115936 0.00606743 0)
(0.116412 0.00677908 0)
(0.116946 0.00748676 0)
(0.117538 0.00817943 0)
(0.118184 0.00884623 0)
(0.118877 0.00947758 0)
(0.100004 -0.000149309 0)
(0.10006 -0.000297079 0)
(0.100149 -0.000426762 0)
(0.100266 -0.000542185 0)
(0.100407 -0.000645426 0)
(0.100569 -0.000737832 0)
(0.100748 -0.000820343 0)
(0.100942 -0.000893563 0)
(0.101148 -0.000957855 0)
(0.101363 -0.00101348 0)
(0.101586 -0.00106077 0)
(0.101814 -0.00110021 0)
(0.102045 -0.00113259 0)
(0.102277 -0.00115903 0)
(0.10251 -0.00118093 0)
(0.102742 -0.00119992 0)
(0.102972 -0.00121775 0)
(0.1032 -0.00123611 0)
(0.103426 -0.00125658 0)
(0.10365 -0.00128044 0)
(0.103872 -0.00130869 0)
(0.104093 -0.00134196 0)
(0.104313 -0.00138054 0)
(0.104533 -0.0014244 0)
(0.104753 -0.00147328 0)
(0.104975 -0.00152672 0)
(0.105198 -0.00158411 0)
(0.105422 -0.00164478 0)
(0.105649 -0.00170802 0)
(0.105878 -0.00177313 0)
(0.106108 -0.0018394 0)
(0.106341 -0.0019062 0)
(0.106576 -0.00197291 0)
(0.106812 -0.00203896 0)
(0.107049 -0.00210381 0)
(0.107287 -0.00216694 0)
(0.107526 -0.00222785 0)
(0.107765 -0.00228606 0)
(0.108003 -0.00234107 0)
(0.10824 -0.00239238 0)
(0.108475 -0.00243947 0)
(0.108709 -0.00248181 0)
(0.10894 -0.00251883 0)
(0.109168 -0.00254992 0)
(0.109393 -0.00257445 0)
(0.109613 -0.00259174 0)
(0.109829 -0.00260105 0)
(0.11004 -0.0026016 0)
(0.110246 -0.00259256 0)
(0.110445 -0.00257303 0)
(0.110639 -0.00254205 0)
(0.110826 -0.00249858 0)
(0.111007 -0.00244155 0)
(0.111181 -0.00236977 0)
(0.111348 -0.00228201 0)
(0.111508 -0.00217695 0)
(0.111662 -0.00205322 0)
(0.11181 -0.00190938 0)
(0.111953 -0.00174392 0)
(0.11209 -0.00155533 0)
(0.112224 -0.00134205 0)
(0.112356 -0.00110256 0)
(0.112487 -0.000835367 0)
(0.112619 -0.000539093 0)
(0.112754 -0.000212489 0)
(0.112896 0.00014546 0)
(0.113047 0.000535189 0)
(0.113211 0.000956861 0)
(0.113391 0.00141017 0)
(0.113591 0.00189418 0)
(0.113816 0.00240721 0)
(0.114069 0.00294676 0)
(0.114355 0.00350938 0)
(0.114677 0.00409069 0)
(0.115039 0.00468538 0)
(0.115443 0.00528725 0)
(0.115889 0.00588944 0)
(0.116378 0.00648467 0)
(0.116907 0.00706561 0)
(0.117475 0.00762542 0)
(0.118075 0.00815856 0)
(0.100002 -0.000164456 0)
(0.100058 -0.000328205 0)
(0.100144 -0.000472273 0)
(0.100257 -0.000600661 0)
(0.100393 -0.000715612 0)
(0.10055 -0.000818554 0)
(0.100724 -0.000910499 0)
(0.100912 -0.000992109 0)
(0.101112 -0.00106379 0)
(0.101322 -0.00112583 0)
(0.101538 -0.00117857 0)
(0.10176 -0.00122257 0)
(0.101984 -0.00125866 0)
(0.102211 -0.00128803 0)
(0.102437 -0.00131221 0)
(0.102663 -0.00133296 0)
(0.102887 -0.00135218 0)
(0.103108 -0.00137175 0)
(0.103327 -0.00139338 0)
(0.103544 -0.00141852 0)
(0.103759 -0.00144828 0)
(0.103971 -0.00148338 0)
(0.104183 -0.00152417 0)
(0.104394 -0.00157068 0)
(0.104604 -0.00162262 0)
(0.104815 -0.00167952 0)
(0.105027 -0.00174072 0)
(0.105239 -0.00180549 0)
(0.105453 -0.00187306 0)
(0.105669 -0.00194265 0)
(0.105885 -0.00201349 0)
(0.106103 -0.00208486 0)
(0.106322 -0.00215609 0)
(0.106542 -0.00222653 0)
(0.106763 -0.00229558 0)
(0.106984 -0.00236266 0)
(0.107205 -0.00242724 0)
(0.107425 -0.00248878 0)
(0.107645 -0.00254673 0)
(0.107863 -0.00260056 0)
(0.108079 -0.00264972 0)
(0.108293 -0.00269364 0)
(0.108504 -0.00273171 0)
(0.108712 -0.00276333 0)
(0.108917 -0.00278783 0)
(0.109118 -0.00280452 0)
(0.109314 -0.00281266 0)
(0.109505 -0.00281148 0)
(0.109692 -0.00280016 0)
(0.109873 -0.00277782 0)
(0.110049 -0.00274355 0)
(0.110219 -0.00269638 0)
(0.110383 -0.00263532 0)
(0.110542 -0.00255929 0)
(0.110696 -0.0024672 0)
(0.110844 -0.00235792 0)
(0.110987 -0.0022303 0)
(0.111127 -0.00208315 0)
(0.111263 -0.00191531 0)
(0.111396 -0.00172563 0)
(0.111528 -0.00151301 0)
(0.111661 -0.00127643 0)
(0.111795 -0.00101498 0)
(0.111932 -0.000727928 0)
(0.112075 -0.000414713 0)
(0.112227 -7.50064e-05 0)
(0.112389 0.000291062 0)
(0.112565 0.000682781 0)
(0.112756 0.00109916 0)
(0.112967 0.00153874 0)
(0.1132 0.00199947 0)
(0.113457 0.0024787 0)
(0.113742 0.00297321 0)
(0.114056 0.00347917 0)
(0.114401 0.00399223 0)
(0.114777 0.00450764 0)
(0.115186 0.00502038 0)
(0.115625 0.00552539 0)
(0.116093 0.00601777 0)
(0.116587 0.0064932 0)
(0.117105 0.00694842 0)
(0.1 -0.000180058 0)
(0.100055 -0.000360285 0)
(0.100138 -0.000519258 0)
(0.100247 -0.000661112 0)
(0.100378 -0.00078824 0)
(0.10053 -0.000902154 0)
(0.100698 -0.00100393 0)
(0.10088 -0.00109429 0)
(0.101074 -0.00117368 0)
(0.101276 -0.00124242 0)
(0.101486 -0.00130088 0)
(0.1017 -0.00134964 0)
(0.101918 -0.00138959 0)
(0.102137 -0.00142201 0)
(0.102356 -0.00144853 0)
(0.102575 -0.00147104 0)
(0.102791 -0.00149159 0)
(0.103005 -0.00151222 0)
(0.103217 -0.00153482 0)
(0.103426 -0.00156097 0)
(0.103632 -0.00159192 0)
(0.103836 -0.0016285 0)
(0.104038 -0.00167112 0)
(0.104239 -0.00171983 0)
(0.104439 -0.00177439 0)
(0.104638 -0.00183427 0)