/*--------------------------------*- C++ -*----------------------------------*\
| =========                 |                                                 |
| \\      /  F ield         | OpenFOAM: The Open Source CFD Toolbox           |
|  \\    /   O peration     | Version:  2112                                  |
|   \\  /    A nd           | Website:  www.openfoam.com                      |
|    \\/     M anipulation  |                                                 |
\*---------------------------------------------------------------------------*/
FoamFile
{
    version     2.0;
    format      ascii;
    arch        "LSB;label=32;scalar=64";
    class       surfaceScalarField;
    location    "0.8";
    object      phi;
}
// * * * * * * * * * * * * * * * * * * * * * * * * * * * * * * * * * * * * * //

dimensions      [0 3 -1 0 0 0 0];

oriented        oriented;

internalField   nonuniform List<scalar> 
3280
(
0.000302511785909
0.000917000419927
0.000201875180002
0.000100636601511
0.000190713127351
1.11620475417e-05
0.000183457486819
7.25564543381e-06
0.000184322989378
-8.6550244739e-07
0.000183689101591
6.33885660061e-07
0.000184149560509
-4.60458130363e-07
0.000184075046068
7.45150231964e-08
0.000184181527654
-1.06482134241e-07
0.000184160045281
2.14823132464e-08
0.000184179145753
-1.91002143119e-08
0.000184172195121
6.95057836638e-09
0.000184175523301
-3.32827164912e-09
0.000184173706623
1.81672831637e-09
0.00018417437815
-6.71508426254e-10
0.000184173974538
4.03582053321e-10
0.000184174130754
-1.56219277663e-10
0.000184174047231
8.35358471946e-11
0.000184174084512
-3.72826376753e-11
0.000184174067096
1.74126264833e-11
0.000184174075654
-8.55210960037e-12
0.000184174071868
3.78480909578e-12
0.000184174073756
-1.89410429661e-12
0.000184174072907
8.46975982802e-13
0.000184174073317
-4.08863263525e-13
0.000184174073126
1.91442796432e-13
0.000184174073216
-8.96305273131e-14
0.000184174073174
4.52339799441e-14
0.000184174073194
-2.34837043073e-14
0.000184174073183
9.30080111296e-15
0.000184174073188
-1.69910686416e-15
0.000184174073186
5.85063392389e-16
0.000184174073188
-6.41902786681e-16
0.000184174073186
-8.2171242111e-16
0.000184174073187
1.17613197236e-16
0.000184174073186
-3.08645175523e-15
0.000184174073187
3.05969121868e-15
0.000184174073186
-2.06416203712e-17
0.000184174073186
6.88184445162e-16
0.000184174073187
-1.03682989488e-15
-1.37490683755e-16
0.000680514169453
0.00145599844975
0.000528406826415
0.000252743947563
0.000487299792417
5.22690749932e-05
0.000473691255819
2.08641847239e-05
0.00047282104839
4.70678725811e-09
0.000472163308839
1.2916232758e-06
0.000472745710529
-1.04285980408e-06
0.000472786177428
3.40489060178e-08
0.000472942927805
-2.63232811811e-07
0.000472942668221
2.17416719933e-08
0.000472967592512
-4.40242969323e-08
0.000472962058999
1.24841270726e-08
0.000472965286148
-6.55552052479e-09
0.000472963286185
3.81670621497e-09
0.000472963805746
-1.19103528343e-09
0.000472963343394
8.65914131558e-10
0.000472963473191
-2.86024860113e-10
0.000472963384074
1.72659682902e-10
0.000472963419594
-7.2807299789e-11
0.000472963402631
3.43721866009e-11
0.000472963411364
-1.72867583348e-11
0.000472963407819
7.33685594069e-12
0.000472963409759
-3.83948962657e-12
0.000472963408949
1.65572982983e-12
0.000472963409361
-8.17123638804e-13
0.000472963409174
3.79827386376e-13
0.000472963409263
-1.76791454865e-13
0.000472963409222
8.77908835143e-14
0.00047296340924
-4.76128220857e-14
0.000472963409229
1.31916725334e-14
0.000472963409234
-6.90772904932e-15
0.000472963409232
6.36474296777e-15
0.000472963409234
-3.09748227569e-15
0.000472963409232
-3.3896044894e-15
0.000472963409233
-2.99520947643e-15
0.000472963409232
-2.92978885233e-15
0.000472963409233
3.49652221185e-15
0.000472963409232
-5.57634423914e-16
0.000472963409232
-5.91012962657e-16
0.000472963409233
1.51872026869e-16
3.42559850154e-15
0.000926701844703
0.0017488087997
0.00077920150761
0.000400244292802
0.000718735358821
0.000112735217291
0.000702147321616
3.74522222777e-05
0.000699004166104
3.14786504892e-06
0.000698516651361
1.77913665226e-06
0.000698982592905
-1.50880199097e-06
0.000699162841021
-1.46198414308e-07
0.00069932065309
-4.21044905887e-07
0.000699351625324
-9.23088459243e-09
0.000699374187809
-6.65866618984e-08
0.000699373435701
1.32363315243e-08
0.000699375160647
-8.28054717841e-09
0.000699373828982
5.14835578501e-09
0.000699373902273
-1.26429369807e-09
0.000699373563839
1.20433860021e-09
0.000699373596176
-3.18373672785e-10
0.000699373538534
2.30305436667e-10
0.000699373555203
-8.94715223704e-11
0.000699373546425
4.31440155691e-11
0.000699373551442
-2.23071777274e-11
0.000699373549833
8.95473063191e-12
0.000699373550974
-4.97286341775e-12
0.000699373550589
2.03724898139e-12
0.000699373550817
-1.04345141447e-12
0.000699373550721
4.81617489431e-13
0.000699373550768
-2.23403255531e-13
0.000699373550747
1.1448149225e-13
0.000699373550756
-5.83128090975e-14
0.000699373550749
1.91462669921e-14
0.000699373550751
-9.74835410956e-15
0.00069937355075
1.00375985193e-14
0.000699373550752
-1.57107736608e-15
0.000699373550751
-3.83457517678e-15
0.000699373550751
-4.02099606471e-15
0.000699373550751
-2.31664660584e-15
0.000699373550752
2.8519906206e-15
0.00069937355075
-6.7381576138e-16
0.00069937355075
-3.20280849385e-15
0.000699373550751
-2.52056770618e-15
1.11478215678e-15
0.00109320493401
0.00187511605457
0.000965358026856
0.000528091212712
0.000899455656496
0.000178637581994
0.000881195488989
5.57123877723e-05
0.000876532790279
7.81056711702e-06
0.000876031714562
2.28021179286e-06
0.000876389013034
-1.86610164817e-06
0.000876642067448
-3.99252176599e-07
0.000876799263858
-5.78241048958e-07
0.000876849532551
-5.9499936026e-08
0.000876871286456
-8.83405571767e-08
0.000876873717545
1.08053909337e-08
0.000876874673527
-9.2365823565e-09
0.000876873784502
6.03733092271e-09
0.000876873600307
-1.08006358079e-09
0.000876873336665
1.46798594633e-09
0.000876873309535
-2.91257623447e-10
0.000876873269939
2.69897365143e-10
0.000876873274911
-9.44434564243e-11
0.000876873270884
4.71709443221e-11
0.000876873273627
-2.50536605318e-11
0.000876873273169
9.41589237261e-12
0.000876873273832
-5.63149067027e-12
0.000876873273703
2.16841292466e-12
0.000876873273823
-1.16661789874e-12
0.000876873273781
5.20494252038e-13
0.000876873273803
-2.46293948359e-13
0.000876873273793
1.20117795054e-13
0.000876873273797
-5.92110307208e-14
0.000876873273793
2.15718394391e-14
0.000876873273793
-7.04037580631e-15
0.000876873273793
7.80720209844e-15
0.000876873273794
-1.8331223418e-15
0.000876873273794
-3.38793558083e-15
0.000876873273793
-3.23694958635e-15
0.000876873273794
-2.00776507989e-17
0.000876873273794
1.68046212304e-15
0.000876873273793
-7.71407501948e-16
0.000876873273793
1.41004059525e-15
0.000876873273794
-1.01116325345e-15
6.28987287731e-16
0.00120381208968
0.00189081614953
0.00110245758894
0.000629445729279
0.00103977727333
0.000241317893259
0.00102132931449
7.41603427918e-05
0.00101582899777
1.33108872348e-05
0.0010152517829
2.85742687446e-06
0.00101550432047
-2.11864071538e-06
0.00101578472798
-6.79659270026e-07
0.00101593598768
-7.29500265918e-07
0.0010159967382
-1.20250791901e-07
0.00101601786595
-1.09468403412e-07
0.00101602237347
6.29805037609e-09
0.00101602294848
-9.81161296398e-09
0.0010160223818
6.60394512833e-09
0.00101602205757
-7.5580603304e-10
0.00101602184639
1.67918347372e-09
0.00101602178381
-2.28685940113e-10
0.00101602175543
2.98271345201e-10
0.00101602175298
-9.19902861824e-11
0.00101602175177
4.83745374121e-11
0.00101602175304
-2.63320635297e-11
0.00101602175328
9.18781211101e-12
0.00101602175364
-5.9842893749e-12
0.00101602175366
2.13941380828e-12
0.00101602175372
-1.22080493561e-12
0.00101602175371
5.30333600926e-13
0.00101602175372
-2.48342978829e-13
0.00101602175371
1.23116676797e-13
0.00101602175371
-5.82328201167e-14
0.00101602175371
2.45058137357e-14
0.00101602175371
-1.11499699066e-14
0.00101602175371
4.06468056508e-15
0.00101602175371
-1.24950887196e-15
0.00101602175371
-1.73209388027e-15
0.00101602175371
-4.00038352367e-15
0.00101602175371
-1.74639996652e-16
0.00101602175371
-3.53537382603e-15
0.00101602175371
1.62260438529e-15
0.00101602175371
3.48837684991e-15
0.00101602175371
-2.1979221101e-15
-1.48456945114e-15
0.00127539470627
0.00183493362446
0.00120239580713
0.000702444645986
0.00114814203483
0.000295571662927
0.00113083079416
9.14715783224e-05
0.00112508861277
1.90530716378e-05
0.00112443712318
3.50891742555e-06
0.00112459194859
-2.27346770908e-06
0.00112486789035
-9.55600906502e-07
0.00112500718144
-8.68790738293e-07
0.00112507149744
-1.84567041582e-07
0.00112509157098
-1.29542129041e-07
0.00112509729164
5.77555879818e-10
0.00112509769226
-1.02122075746e-08
0.00112509737261
6.92352438912e-09
0.00112509698712
-3.70306687232e-10
0.00112509681808
1.8482533105e-09
0.00112509673678
-1.4739938047e-10
0.00112509671599
3.19054739594e-10
0.00112509670898
-8.49722022575e-11
0.00112509670942
4.79439462876e-11
0.00112509670972
-2.66427631069e-11
0.00112509671035
8.56015841428e-12
0.00112509671051
-6.13982355194e-12
0.00112509671063
2.01841509368e-12
0.00112509671064
-1.23425980681e-12
0.00112509671066
5.14033677539e-13
0.00112509671065
-2.43618568864e-13
0.00112509671066
1.18096447209e-13
0.00112509671065
-5.77627317995e-14
0.00112509671065
2.0273218622e-14
0.00112509671065
-9.77374406293e-15
0.00112509671065
2.64165225511e-15
0.00112509671065
-1.06719042334e-15
0.00112509671065
2.08412843073e-15
0.00112509671065
-1.94208916794e-15
0.00112509671065
1.3641211101e-15
0.00112509671065
-4.44115342228e-15
0.00112509671065
-1.61099726757e-16
0.00112509671065
2.55361252669e-15
0.00112509671065
8.4056558504e-16
-8.37253229878e-16
0.001320010621
0.00173443518267
0.00127434211608
0.000748113168957
0.00123134861294
0.00033856516531
0.00121624094125
0.000106579244066
0.00121075059214
2.4543423064e-05
0.00121006193055
4.19758061091e-06
0.00121012915554
-2.34069418692e-06
0.00121037877064
-1.20521619132e-06
0.00121050031359
-9.90333017342e-07
0.00121056274403
-2.46997607738e-07
0.00121058103718
-1.47835528929e-07
0.00121058727797
-5.66310637945e-09
0.00121058759725
-1.05314262157e-08
0.00121058747483
7.04587931653e-09
0.00121058708093
2.35814367468e-11
0.00121058695038
1.97883811917e-09
0.00121058686223
-5.92631207293e-11
0.00121058684732
3.33956354653e-10
0.00121058683771
-7.53676069038e-11
0.0012105868391
4.65649590514e-11
0.00121058683874
-2.62911057642e-11
0.00121058683957
7.73309739775e-12
0.0012105868396
-6.15747089806e-12
0.00121058683977
1.84035230599e-12
0.00121058683975
-1.21712542414e-12
0.00121058683978
4.90797872358e-13
0.00121058683977
-2.31762443298e-13
0.00121058683978
1.17037811828e-13
0.00121058683977
-5.46692971926e-14
0.00121058683977
2.25441589157e-14
0.00121058683977
-3.48153713268e-15
0.00121058683977
1.6638309484e-15
0.00121058683977
1.4359042682e-15
0.00121058683977
5.91823387965e-15
0.00121058683977
1.2408712279e-15
0.00121058683977
-2.24037580969e-15
0.00121058683977
-4.54820998948e-15
0.00121058683977
1.8811094154e-15
0.00121058683977
2.20636856028e-15
0.00121058683977
2.65945978443e-15
-2.24657192567e-15
0.00134618853208
0.00160775882789
0.00132536615362
0.000768935564808
0.00129484400669
0.000369087313364
0.00128272355113
0.000118699693408
0.00127787327753
2.93936980797e-05
0.00127720058414
4.87027605016e-06
0.00127719228324
-2.33239451621e-06
0.00127740114148
-1.41407490037e-06
0.00127749989177
-1.08908264631e-06
0.0012775561931
-3.03298940783e-07
0.00127757187219
-1.63514893397e-07
0.00127757807423
-1.18650628136e-08
0.00127757833473
-1.07918345216e-08
0.00127757837513
7.00541771648e-09
0.00127757800746
3.91227182986e-10
0.0012775779154
2.0709375751e-09
0.00127757782882
2.73125652676e-11
0.00127757781921
3.43550662704e-10
0.00127757780836
-6.45144484587e-11
0.0012775778103
4.46234267287e-11
0.00127757780948
-2.54726125901e-11
0.00127757781039
6.81743057554e-12
0.00127757781031
-6.07388198709e-12
0.00127757781051
1.64519263764e-12
0.00127757781047
-1.18409530435e-12
0.00127757781051
4.54270305754e-13
0.0012775778105
-2.19428120788e-13
0.0012775778105
1.10660704268e-13
0.0012775778105
-4.6519881713e-14
0.0012775778105
2.06055460433e-14
0.0012775778105
-1.41222245585e-15
0.0012775778105
1.80241571468e-15
0.0012775778105
1.98664844517e-17
0.0012775778105
8.75434867057e-15
0.0012775778105
1.73714683719e-15
0.0012775778105
-3.99578418654e-16
0.0012775778105
-6.7671325174e-15
0.0012775778105
2.49304001919e-15
0.0012775778105
-1.80998139488e-15
0.0012775778105
6.08140963349e-15
-1.74798459674e-15
0.00135993283781
0.00146733816704
0.00136088141011
0.000767987008292
0.00134297469507
0.000386994031233
0.00133435305998
0.000127321322455
0.00133043039701
3.33163614987e-05
0.00132982973314
5.47094222292e-06
0.00132975891035
-2.26157258484e-06
0.0013299180648
-1.57323006317e-06
0.0013299899988
-1.1610160721e-06
0.00133003693905
-3.50239057853e-07
0.00133004919789
-1.75774024267e-07
0.00133005491183
-1.75789721078e-08
0.00133005509634
-1.09762233565e-08
0.00133005527374
6.82797515436e-09
0.00133005495443
7.10493183118e-10
0.00133005490239
2.1230165638e-09
0.00133005482335
1.06360934799e-10
0.00133005481907
3.47808748489e-10
0.00133005480792
-5.33588724527e-11
0.00133005481021
4.2330883996e-11
0.00133005480905
-2.43093247573e-11
0.00133005480997
5.89338362387e-12
0.00133005480981
-5.90939333523e-12
0.00133005481001
1.4403626492e-12
0.00133005480996
-1.13449628645e-12
0.00133005481
4.1789507957e-13
0.00133005480999
-2.0078257629e-13
0.00133005481
1.0791971771e-13
0.00133005480999
-4.63510054095e-14
0.00133005480999
1.95194196461e-14
0.00133005480999
-4.64436106868e-16
0.00133005480999
4.58478320052e-15
0.00133005480999
2.42410634224e-15
0.00133005480999
5.74407842434e-15
0.00133005480999
4.19688210597e-15
0.00133005480999
-2.18491284045e-15
0.00133005480999
-4.43158026296e-15
0.00133005480999
-1.69771672153e-16
0.00133005480999
2.18460265301e-15
0.00133005480999
5.76823923514e-15
1.09227388258e-15
0.00136546588206
0.0013213844627
0.00138500770061
0.000748445203114
0.00137919228932
0.000392809446788
0.00137434205795
0.000132171548369
0.00137154271511
3.61157038474e-05
0.00137106490675
5.94875292931e-06
0.00137094454688
-2.14121314533e-06
0.00137104911172
-1.67779576868e-06
0.00137109135079
-1.20325470895e-06
0.00137112656977
-3.85457793817e-07
0.00137113471552
-1.83920040379e-07
0.00137113958709
-2.24505776751e-08
0.00137113965975
-1.10487634435e-08
0.00137113995307
6.5346329412e-09
0.00137113969558
9.67938333856e-10
0.00137113968531
2.13330600262e-09
0.00137113961798
1.73704738621e-10
0.00137113961934
3.46437945609e-10
0.00137113960855
-4.25744179303e-11
0.00137113961111
3.97722617452e-11
0.00137113960968
-2.2878380359e-11
0.00137113961056
5.00170736751e-12
0.00137113961032
-5.67502361962e-12
0.00137113961053
1.2375255534e-12
0.00137113961047
-1.07046372949e-12
0.00137113961051
3.75037939618e-13
0.00137113961049
-1.83266703805e-13
0.0013711396105
1.01158579579e-13
0.0013711396105
-4.22476319617e-14
0.0013711396105
1.81699643525e-14
0.00137113961049
-4.64030067471e-15
0.0013711396105
4.66715128614e-15
0.0013711396105
1.51851775114e-15
0.0013711396105
7.81514989949e-15
0.00137113961049
4.35725201961e-15
0.00137113961049
5.32785361299e-16
0.0013711396105
-2.94200414526e-15
0.0013711396105
-4.17044175543e-15
0.00137113961049
1.53386412873e-16
0.0013711396105
5.13459007437e-15
1.19669855524e-15
0.0013657492292
0.00117514741348
0.00140086607132
0.000713328371347
0.00140622473077
0.00038745079266
0.00140522086187
0.000133175412716
0.00140365964408
3.76769203023e-05
0.00140334575714
6.2626420825e-06
0.00140318804061
-1.98349662309e-06
0.00140323617879
-1.72593488827e-06
0.00140324700496
-1.21408062491e-06
0.00140326891482
-4.07367316454e-07
0.00140327241765
-1.87423082677e-07
0.00140327617993
-2.62129521203e-08
0.00140327609991
-1.09686287388e-08
0.00140327649093
6.14361699568e-09
0.00140327630253
1.15629425081e-09
0.00140327633529
2.10056594144e-09
0.00140327628246
2.26546293459e-10
0.00140327628976
3.3911778281e-10
0.00140327627982
-3.26353046221e-11
0.00140327628261
3.69888960446e-11
0.00140327628096
-2.12328522255e-11
0.00140327628178
4.17957171672e-12
0.00140327628147
-5.3736572089e-12
0.00140327628167
1.04498771174e-12
0.0014032762816
-1.00298522629e-12
0.00140327628164
3.38735922864e-13
0.00140327628162
-1.69955255268e-13
0.00140327628163
9.35876560735e-14
0.00140327628163
-3.83058244942e-14
0.00140327628163
1.26959181152e-14
0.00140327628163
-6.9626538774e-15
0.00140327628163
4.0553615053e-15
0.00140327628163
2.36038664312e-15
0.00140327628163
7.39096061387e-15
0.00140327628163
1.94833972922e-15
0.00140327628163
1.03223353267e-15
0.00140327628163
1.14147285529e-15
0.00140327628163
-4.63404158632e-15
0.00140327628163
-2.10914017516e-15
0.00140327628163
-1.55654637588e-15
3.24696366307e-15
0.00136284996976
0.00103180962581
0.00141081105335
0.000665367294698
0.0014262184208
0.000372043431183
0.00142897935267
0.000130414477434
0.00142870176351
3.79545074513e-05
0.00142858099702
6.38341049417e-06
0.00142839674415
-1.79924335682e-06
0.00142838894009
-1.71813175885e-06
0.00142836775283
-1.19289328345e-06
0.00142837546114
-4.15075255977e-07
0.00142837398023
-1.85942313338e-07
0.00142837644883
-2.86816836942e-08
0.00142837617889
-1.06985925625e-08
0.00142837665143
5.67111809481e-09
0.00142837653486
1.27281329816e-09
0.00142837661101
2.02441837485e-09
0.00142837657436
2.63222247678e-10
0.00142837658785
3.25613902108e-10
0.00142837657907
-2.38575356716e-11
0.00142837658208
3.39863146081e-11
0.00142837658025
-1.94089941921e-11
0.00142837658099
3.43530816542e-12
0.00142837658063
-5.00758288067e-12
0.0014283765808
8.70702043332e-13
0.00142837658073
-9.27292047587e-13
0.00142837658077
3.01190593031e-13
0.00142837658075
-1.51949522469e-13
0.00142837658076
8.74133785755e-14
0.00142837658075
-3.19599151133e-14
0.00142837658076
1.37743646811e-14
0.00142837658075
-1.10680986553e-14
0.00142837658075
1.77140755678e-15
0.00142837658075
2.93671002621e-15
0.00142837658075
6.76085803355e-15
0.00142837658075
-3.49872523546e-16
0.00142837658075
4.06142053108e-15
0.00142837658076
2.98066093224e-15
0.00142837658076
-4.69775405725e-15
0.00142837658075
-4.46357359651e-15
0.00142837658075
-1.57533526754e-16
1.51529389822e-15
0.00135820131383
0.000893120497336
0.00141661101903
0.000606957592865
0.00144085465331
0.000347799803096
0.00144717903415
0.000124090094451
0.00144817261118
3.69609279273e-05
0.00144826174532
6.29427786286e-06
0.00144806008895
-1.59758625809e-06
0.00144799861773
-1.65666137563e-06
0.00144794586025
-1.14013589912e-06
0.00144793910444
-4.08319053724e-07
0.00144793249821
-1.79336152073e-07
0.00144793356725
-2.97508823995e-08
0.00144793307907
-1.02103332911e-08
0.00144793361865
5.13159194709e-09
0.00144793357324
1.31817774626e-09
0.00144793369208
1.90556865305e-09
0.00144793367233
2.82988231011e-10
0.0014479336921
3.05851634322e-10
0.00144793368467
-1.64384644892e-11
0.00144793368791
3.07468214434e-11
0.00144793368594
-1.74315098204e-11
0.00144793368659
2.78541490283e-12
0.00144793368616
-4.58094929124e-12
0.00144793368632
7.12505058267e-13
0.00144793368624
-8.43156146993e-13
0.00144793368628
2.60658893094e-13
0.00144793368626
-1.38668488069e-13
0.00144793368627
7.77378144014e-14
0.00144793368626
-2.70139223588e-14
0.00144793368627
1.7344992042e-14
0.00144793368626
-6.76609113458e-15
0.00144793368626
4.69002737499e-16
0.00144793368627
3.31542808491e-15
0.00144793368626
1.07139892919e-15
0.00144793368626
1.43808675408e-15
0.00144793368626
-1.26941459959e-17
0.00144793368627
8.20871773155e-15
0.00144793368627
-3.73715384561e-15
0.00144793368626
-5.42194185801e-15
0.00144793368626
4.91838330494e-17
2.14216420907e-15
0.00135278878295
0.000759843903427
0.00141958755069
0.000540158824956
0.00145144386863
0.000315943491158
0.00146104143129
0.000114492530971
0.00146324622451
3.47561319502e-05
0.0014635500441
5.99045928513e-06
0.00146333829342
-1.38583460381e-06
0.00146322682764
-1.54519628518e-06
0.00146314389704
-1.05720555206e-06
0.00146312298377
-3.87405416543e-07
0.00146311130916
-1.67661534599e-07
0.00146311094693
-2.93888128883e-08
0.00146311022402
-9.48738369945e-09
0.0014631108178
4.53786800669e-09
0.00146311084023
1.2957150099e-09
0.00146311099994
1.74584173154e-09
0.00146311099701
2.85930347512e-10
0.00146311102294
2.79920312394e-10
0.00146311101696
-1.04569363555e-11
0.00146311102043
2.72760195399e-11
0.00146311101834
-1.5332369332e-11
0.00146311101891
2.21778070293e-12
0.00146311101842
-4.10239272522e-12
0.00146311101857
5.70628770826e-13
0.00146311101847
-7.4965861332e-13
0.00146311101851
2.21614436471e-13
0.00146311101849
-1.23865326848e-13
0.0014631110185
7.13973418599e-14
0.0014631110185
-2.09295228395e-14
0.0014631110185
1.50248451038e-14
0.0014631110185
-6.46737535207e-15
0.0014631110185
5.31671566879e-15
0.0014631110185
3.13891810851e-15
0.0014631110185
-6.95558940271e-16
0.0014631110185
1.69723036925e-15
0.0014631110185
4.76526737317e-16
0.0014631110185
4.46975498097e-15
0.0014631110185
-6.70104007549e-16
0.0014631110185
-7.02417206518e-15
0.0014631110185
5.77196724564e-16
4.7954405369e-15
0.00134728316587
0.000632072930936
0.00142072261345
0.000466719373946
0.00145900125694
0.000277664853116
0.00147151765128
0.000101976137055
0.00147483554589
3.14382345258e-05
0.00147534784759
5.47815807755e-06
0.00147513149859
-1.1694844709e-06
0.00147497481171
-1.38850990187e-06
0.00147486395988
-9.46354093339e-07
0.00147482970574
-3.53150965569e-07
0.00147481320934
-1.5116505092e-07
0.00147481145309
-2.76327326815e-08
0.00147481049215
-8.52643909555e-09
0.00147481112889
3.9012029166e-09
0.00147481121376
1.21082004522e-09
0.00147481141141
1.54816912927e-09
0.00147481142452
2.72834356223e-10
0.0014748114563
2.48146573406e-10
0.00147481145176
-5.92335943261e-12
0.00147481145546
2.3564172716e-11
0.00147481145327
-1.31359400766e-11
0.00147481145376
1.72993258455e-12
0.00147481145322
-3.56322540408e-12
0.00147481145335
4.4735253846e-13
0.00147481145324
-6.49391323388e-13
0.00147481145328
1.83929265591e-13
0.00147481145326
-1.07301401855e-13
0.00147481145327
6.00443254881e-14
0.00147481145327
-2.03377900694e-14
0.00147481145327
1.72159924783e-14
0.00147481145327
-5.9011386228e-15
0.00147481145327
5.84446598223e-15
0.00147481145327
2.56351605499e-15
0.00147481145327
1.06480056666e-15
0.00147481145327
2.3834547364e-15
0.00147481145327
1.32631467863e-15
0.00147481145327
7.59263606865e-15
0.00147481145327
-5.33129775589e-15
0.00147481145327
-3.44969728778e-15
0.00147481145327
3.24030727852e-15
3.81135740897e-15
0.00134213529839
0.000509449829203
0.00142074039723
0.000388114268797
0.00146430681209
0.000234098442866
0.00147934286175
8.69400889591e-05
0.00148364565051
2.71354430835e-05
0.00148435057166
4.77323690016e-06
0.0014841334234
-9.52335011332e-07
0.00148393715981
-1.19224659352e-06
0.0014838013887
-8.10583444801e-07
0.00148375505996
-3.06821980864e-07
0.00148373416304
-1.30267997089e-07
0.00148373111282
-2.45826480517e-08
0.00148372992381
-7.33745153472e-09
0.00148373059378
3.23130747146e-09
0.00148373073404
1.07055145541e-09
0.00148373096568
1.31649486169e-09
0.00148373099342
2.45104092831e-10
0.00148373103054
2.11030839515e-10
0.00148373102736
-2.74532098279e-12
0.00148373103128
1.96339747459e-11
0.00148373102901
-1.08525475202e-11
0.00148373102943
1.31294684612e-12
0.00148373102884
-2.98390046121e-12
0.00148373102895
3.4317944999e-13
0.00148373102884
-5.46087132085e-13
0.00148373102888
1.45121743678e-13
0.00148373102886
-8.96315440411e-14
0.00148373102887
5.08638169721e-14
0.00148373102887
-1.56205821713e-14
0.00148373102887
1.42533186877e-14
0.00148373102887
-3.42738817955e-15
0.00148373102887
5.88354033366e-15
0.00148373102887
4.26121529526e-16
0.00148373102887
1.16182307622e-15
0.00148373102887
3.17454821876e-15
0.00148373102887
3.94549467047e-15
0.00148373102887
6.08761274607e-15
0.00148373102887
-8.3444827792e-15
0.00148373102887
4.10218976255e-16
0.00148373102887
1.97254467024e-15
5.56825434976e-15
0.0013376434654
0.000391318563916
0.00142016929501
0.000305588430583
0.00146795250324
0.000186315238176
0.00148507865589
6.98139388085e-05
0.00149021490045
2.19991961435e-05
0.00149108840122
3.89973564257e-06
0.00149087274467
-7.36677302841e-07
0.0014906432352
-9.627371877e-07
0.00149048618817
-6.53536907838e-07
0.00149042943826
-2.5007192677e-07
0.00149040471714
-1.05546689421e-07
0.00149040052835
-2.03939697422e-08
0.00149039913369
-5.9428481023e-09
0.00149039982861
2.536459262e-09
0.00149040001588
8.83282787956e-10
0.00149040027666
1.05568385623e-09
0.00149040031711
2.04661704757e-10
0.00149040035887
1.69278366008e-10
0.0014904003569
-7.79955290051e-13
0.00149040036102
1.54985956282e-11
0.00149040035868
-8.5057640697e-12
0.00149040035904
9.52686804337e-13
0.00149040035842
-2.36492114162e-12
0.00149040035851
2.48672093217e-13
0.00149040035839
-4.30697211964e-13
0.00149040035843
1.12537768466e-13
0.00149040035841
-6.99689948898e-14
0.00149040035842
4.08928262465e-14
0.00149040035842
-1.12385845865e-14
0.00149040035842
9.79916011322e-15
0.00149040035842
2.83586422848e-16
0.00149040035842
3.49569218784e-15
0.00149040035842
-2.62485690395e-15
0.00149040035842
5.2419935339e-15
0.00149040035842
6.25294908262e-15
0.00149040035842
7.38492498368e-15
0.00149040035842
3.92794123859e-15
0.00149040035842
-6.64631071278e-15
0.00149040035842
4.17470105421e-15
0.00149040035842
2.5590105214e-15
1.50703946479e-15
0.00133400104145
0.00027682972554
0.00141938826954
0.000220201192236
0.00147037874499
0.000135324765065
0.00148914558307
5.10471039481e-05
0.00149494638647
1.61983907888e-05
0.00149595778337
2.88833786488e-06
0.00149574463721
-5.23530095531e-07
0.00149548874516
-7.06845006127e-07
0.00149531459512
-4.79387354121e-07
0.0014952493994
-1.84876165204e-07
0.00149522156199
-7.77090760523e-08
0.00149521643701
-1.52690546588e-08
0.00149521487013
-4.37603594611e-09
0.00149521558299
1.82364546005e-09
0.00149521580788
6.58421636691e-10
0.00149521609216
7.71367825869e-10
0.00149521614294
1.53877463349e-10
0.00149521618849
1.23738469688e-10
0.00149521618752
1.91960304425e-13
0.00149521619181
1.11949994173e-11
0.00149521618942
-6.1094062725e-12
0.00149521618973
6.4169367936e-13
0.00149521618908
-1.707957352e-12
0.00149521618915
1.68126127254e-13
0.00149521618904
-3.07036712085e-13
0.00149521618907
8.39046293759e-14
0.00149521618905
-5.17657567319e-14
0.00149521618906
2.69725740188e-14
0.00149521618906
-8.55122438045e-15
0.00149521618906
4.56465873701e-15
0.00149521618906
3.40651651991e-15
0.00149521618906
5.94675432476e-15
0.00149521618906
-1.52513275065e-15
0.00149521618906
4.39740956803e-15
0.00149521618906
6.89472546147e-15
0.00149521618906
7.8235046003e-15
0.00149521618906
3.11194759366e-15
0.00149521618906
-2.00838797148e-15
0.00149521618906
5.36990898313e-15
0.00149521618906
2.81207092082e-15
-1.75378612178e-15
0.00133132976364
0.00016501216779
0.00141866090608
0.000132870038591
0.00147190197111
8.20837011218e-05
0.00149184763786
3.11014408727e-05
0.00149813149882
9.91452839181e-06
0.00149924499415
1.77484136574e-06
0.00149903436918
-3.12904259888e-07
0.0014987593564
-4.31831920344e-07
0.00149857269127
-2.92722664011e-07
0.00149850127901
-1.13463950366e-07
0.00149847113855
-4.75684099289e-08
0.00149846531732
-9.44784414303e-09
0.00149846362067
-2.67947955863e-09
0.00149846434554
1.09880361163e-09
0.00149846459784
4.06161552691e-10
0.00149846489936
4.69816530876e-10
0.00149846495778
9.54496912104e-11
0.00149846500613
7.53938649719e-11
0.00149846500591
4.20102585434e-13
0.00149846501033
6.76657141222e-12
0.0014984650079
-3.67970872495e-12
0.00149846500817
3.7296283934e-13
0.0014984650075
-1.03169999412e-12
0.00149846500757
9.65466182336e-14
0.00149846500744
-1.84523100399e-13
0.00149846500748
5.38824361411e-14
0.00149846500746
-2.71202707208e-14
0.00149846500747
1.48730251313e-14
0.00149846500747
-4.45084277546e-15
0.00149846500747
1.55277649392e-16
0.00149846500747
3.87582771626e-15
0.00149846500747
4.34029454644e-15
0.00149846500747
-3.98058290417e-15
0.00149846500747
-2.12724512867e-16
0.00149846500747
6.55180408261e-15
0.00149846500747
6.69176294046e-15
0.00149846500747
2.23256756607e-15
0.00149846500747
-1.51608737301e-15
0.00149846500747
4.94615118978e-15
0.00149846500747
2.9527009707e-15
-2.54680730719e-15
0.00132970237285
5.48220018908e-05
0.00141815957602
4.44128239864e-05
0.00147273469587
2.75085811588e-05
0.00149339002937
1.04461112345e-05
0.00149996697422
3.33758265628e-06
0.00150114315653
5.98657705637e-07
0.00150093433644
-1.04083521565e-07
0.00150064774211
-1.4523714248e-07
0.00150045344807
-9.84289876652e-08
0.00150037823188
-3.8247888456e-08
0.00150034667841
-1.60147451121e-08
0.00150034042828
-3.197702914e-09
0.00150033865103
-9.02315263786e-10
0.00150033938277
3.6707857407e-10
0.00150033965173
1.37240908937e-10
0.00150033996379
1.57743394749e-10
0.00150034002688
3.23384945045e-11
0.00150034007696
2.53312436015e-11
0.0015003400772
1.91046424531e-13
0.0015003400817
2.25932267449e-12
0.00150034007925
-1.22438973198e-12
0.0015003400795
1.23119252759e-13
0.00150034007881
-3.44672643836e-13
0.00150034007887
3.05590892152e-14
0.00150034007875
-5.80673020522e-14
0.00150034007878
2.53532347948e-14
0.00150034007876
-7.07036171482e-15
0.00150034007877
4.26118933096e-15
0.00150034007877
8.99040195512e-16
0.00150034007877
-1.69985888267e-15
0.00150034007877
-6.09941897613e-16
0.00150034007877
5.65848308958e-15
0.00150034007877
-3.73549873151e-15
0.00150034007877
7.35118817812e-16
0.00150034007877
5.22769919867e-15
0.00150034007877
5.15810589513e-15
0.00150034007877
-3.33532427226e-16
0.00150034007877
-1.7746608231e-15
0.00150034007877
4.67406348228e-15
0.00150034007877
1.25144373224e-15
-7.45259759123e-17
0.00132915623323
-5.48220236365e-05
0.00141798187832
-4.44128321036e-05
0.00147299902408
-2.75085658093e-05
0.00149389124823
-1.04461091127e-05
0.00150056642063
-3.3375900623e-06
0.00150176373403
-5.98657134505e-07
0.00150155556417
1.04086741595e-07
0.00150126509128
1.4523627709e-07
0.00150106823425
9.8427759658e-08
0.00150099173767
3.8248508699e-08
0.00150095970795