/*--------------------------------*- C++ -*----------------------------------*\
| =========                 |                                                 |
| \\      /  F ield         | OpenFOAM: The Open Source CFD Toolbox           |
|  \\    /   O peration     | Version:  2112                                  |
|   \\  /    A nd           | Website:  www.openfoam.com                      |
|    \\/     M anipulation  |                                                 |
\*---------------------------------------------------------------------------*/
FoamFile
{
    version     2.0;
    format      ascii;
    arch        "LSB;label=32;scalar=64";
    class       volScalarField;
    location    "0.8";
    object      phiE;
}
// * * * * * * * * * * * * * * * * * * * * * * * * * * * * * * * * * * * * * //

dimensions      [1 2 -3 0 0 -1 0];

internalField   nonuniform List<scalar> 
1681
(
0.493903868472
0.493903865622
0.493903862576
0.493903860401
0.493903857256
0.493903853777
0.493903851526
0.493903850601
0.493903850313
0.493903850326
0.493903850462
0.493903849161
0.493903845539
0.493903840212
0.493903833323
0.493903824922
0.493903814796
0.493903804324
0.493903792996
0.493903781399
0.493903770173
0.493903759479
0.49390374891
0.493903738743
0.493903728723
0.493903718419
0.493903707986
0.493903696974
0.493903685418
0.493903673691
0.493903661801
0.493903650027
0.49390363983
0.493903630386
0.493903622977
0.493903617231
0.493903613648
0.493903611791
0.493903611195
0.493903611982
0.493903614129
0.481708715453
0.481708713713
0.481708711088
0.481708708922
0.481708705958
0.481708702707
0.481708700468
0.481708699297
0.481708698745
0.481708698387
0.481708698006
0.481708696282
0.481708692434
0.481708686942
0.481708679817
0.481708671275
0.481708661072
0.481708650432
0.481708638949
0.481708627245
0.481708615778
0.481708604772
0.481708593905
0.481708583381
0.481708572974
0.48170856234
0.481708551563
0.481708540261
0.481708528547
0.481708516611
0.48170850469
0.481708492921
0.481708482653
0.481708473224
0.481708465796
0.481708460016
0.481708456372
0.481708454441
0.481708453893
0.481708454818
0.481708457334
0.469513562263
0.469513561373
0.469513559138
0.469513557032
0.469513554235
0.469513551176
0.469513548946
0.46951354757
0.46951354677
0.469513546071
0.469513545234
0.469513543134
0.469513539069
0.469513533421
0.469513526102
0.46951351744
0.469513507172
0.469513496402
0.469513484799
0.469513473002
0.469513461337
0.469513450069
0.469513438942
0.469513428109
0.469513417371
0.469513406447
0.469513395377
0.469513383832
0.469513371983
0.469513359891
0.469513347951
0.469513336201
0.469513325896
0.469513316492
0.469513309059
0.46951330326
0.469513299569
0.469513297587
0.469513297083
0.469513298131
0.469513300903
0.457318408881
0.457318408646
0.457318406768
0.457318404755
0.457318402114
0.457318399219
0.457318396998
0.457318395447
0.457318394418
0.457318393407
0.457318392167
0.457318389731
0.457318385464
0.457318379672
0.457318372194
0.457318363433
0.457318353115
0.457318342246
0.457318330554
0.45731831868
0.457318306856
0.457318295371
0.457318284021
0.457318272925
0.457318261906
0.45731825073
0.457318239416
0.457318227672
0.45731821571
0.457318203508
0.457318191563
0.457318179845
0.457318169532
0.457318160164
0.457318152739
0.457318146935
0.45731814321
0.457318141196
0.45731814073
0.457318141886
0.457318144835
0.445123255289
0.445123255563
0.445123254009
0.445123252111
0.445123249616
0.445123246862
0.445123244648
0.445123242951
0.44512324171
0.445123240416
0.445123238821
0.445123236087
0.445123231633
0.445123225711
0.445123218103
0.445123209264
0.445123198911
0.445123187973
0.445123176222
0.445123164288
0.445123152342
0.445123140681
0.445123129145
0.445123117828
0.445123106574
0.445123095186
0.44512308367
0.445123071767
0.445123059718
0.445123047444
0.445123035511
0.445123023839
0.445123013541
0.445123004222
0.445122996816
0.445122991021
0.445122987275
0.445122985242
0.445122984813
0.445122986059
0.44512298913
0.432928101472
0.432928102144
0.43292810088
0.432928099108
0.432928096752
0.43292809412
0.432928091915
0.432928090093
0.43292808866
0.432928087111
0.432928085202
0.432928082205
0.432928077581
0.432928071543
0.432928063835
0.432928054936
0.432928044566
0.432928033586
0.432928021801
0.432928009829
0.432927997794
0.432927985997
0.43292797431
0.432927962812
0.432927951367
0.432927939804
0.432927928128
0.432927916104
0.432927903994
0.432927891683
0.432927879778
0.432927868167
0.432927857905
0.432927848647
0.432927841273
0.4329278355
0.432927831744
0.432927829706
0.432927829309
0.43292783063
0.432927833784
0.420732947417
0.4207329484
0.420732947395
0.420732945754
0.420732943528
0.420732941005
0.42073293881
0.420732936883
0.420732935276
0.420732933498
0.420732931314
0.420732928086
0.42073292331
0.420732917174
0.420732909389
0.420732900452
0.420732890082
0.420732879085
0.420732867293
0.420732855305
0.420732843212
0.420732831315
0.420732819513
0.420732807873
0.420732796279
0.420732784579
0.420732772782
0.420732760671
0.420732748529
0.420732736211
0.420732724353
0.420732712818
0.420732702613
0.420732693428
0.420732686098
0.420732680358
0.420732676603
0.42073267457
0.420732674203
0.420732675585
0.420732678792
0.408537793117
0.408537794345
0.408537793568
0.408537792058
0.408537789956
0.40853778753
0.408537785346
0.408537783331
0.40853778157
0.408537779588
0.408537777164
0.408537773735
0.408537768827
0.408537762609
0.408537754771
0.408537745816
0.408537735464
0.408537724476
0.408537712702
0.40853770072
0.408537688601
0.408537676639
0.408537664756
0.408537653014
0.408537641309
0.408537629508
0.408537617629
0.408537605467
0.408537593318
0.408537581023
0.408537569231
0.408537557789
0.408537547658
0.408537538559
0.408537531285
0.408537525589
0.408537521846
0.408537519826
0.408537519486
0.408537520916
0.408537524154
0.396342638569
0.396342639988
0.396342639412
0.39634263803
0.396342636044
0.396342633707
0.396342631537
0.396342629448
0.396342627551
0.396342625391
0.396342622759
0.396342619156
0.396342614136
0.396342607855
0.396342599986
0.396342591034
0.396342580719
0.396342569763
0.396342558031
0.39634254608
0.396342533965
0.396342521973
0.396342510043
0.396342498234
0.396342486457
0.396342474593
0.396342462666
0.396342450486
0.396342438359
0.396342426114
0.396342414408
0.396342403075
0.396342393036
0.396342384036
0.396342376831
0.39634237119
0.396342367468
0.396342365467
0.396342365153
0.396342366619
0.39634236987
0.384147483768
0.384147485333
0.384147484933
0.384147483673
0.384147481796
0.384147479542
0.384147477388
0.384147475239
0.384147473225
0.38414747091
0.384147468098
0.384147464349
0.384147459237
0.384147452911
0.384147445034
0.384147436104
0.384147425847
0.384147414947
0.384147403281
0.384147391385
0.384147379303
0.384147367313
0.384147355371
0.384147343531
0.384147331719
0.384147319826
0.384147307888
0.384147295722
0.384147283644
0.384147271477
0.384147259875
0.384147248668
0.384147238739
0.384147229852
0.384147222726
0.384147217151
0.38414721346
0.384147211485
0.384147211193
0.384147212686
0.384147215935
0.371952328707
0.371952330384
0.371952330136
0.371952328991
0.371952327218
0.371952325041
0.371952322905
0.37195232071
0.371952318595
0.371952316148
0.371952313185
0.371952309315
0.371952304131
0.371952297779
0.371952289914
0.371952281027
0.371952270847
0.371952260025
0.37195224845
0.371952236633
0.371952224614
0.371952212659
0.371952200738
0.371952188901
0.371952177091
0.371952165204
0.371952153288
0.371952141168
0.371952129166
0.371952117103
0.371952105626
0.371952094563
0.371952084758
0.371952075998
0.371952068964
0.371952063465
0.371952059813
0.371952057868
0.371952057597
0.371952059108
0.371952062342
0.359757173388
0.359757175147
0.35975717503
0.359757173992
0.359757172318
0.359757170214
0.3597571681
0.35975716587
0.35975716367
0.359757161112
0.359757158024
0.359757154057
0.359757148823
0.359757142463
0.359757134631
0.359757125806
0.359757115725
0.359757105004
0.359757093543
0.35975708183
0.359757069901
0.359757058013
0.359757046145
0.359757034347
0.359757022572
0.359757010725
0.359756998865
0.359756986822
0.359756974923
0.359756962989
0.359756951657
0.359756940754
0.359756931092
0.359756922471
0.35975691554
0.359756910127
0.359756906522
0.359756904612
0.359756904361
0.359756905881
0.359756909089
0.347562017813
0.34756201963
0.347562019625
0.347562018687
0.347562017104
0.347562015071
0.347562012982
0.347562010728
0.34756200846
0.347562005812
0.347562002622
0.347561998582
0.347561993317
0.347561986969
0.347561979191
0.347561970448
0.347561960484
0.347561949887
0.347561938564
0.34756192698
0.34756191517
0.347561903378
0.347561891595
0.347561879868
0.347561868163
0.347561856389
0.347561844616
0.347561832681
0.347561820913
0.347561809131
0.347561797964
0.34756178724
0.347561777735
0.347561769267
0.347561762451
0.347561757133
0.347561753583
0.347561751713
0.34756175148
0.347561753001
0.347561756174
0.335366861982
0.335366863836
0.335366863926
0.335366863079
0.335366861583
0.335366859618
0.335366857558
0.33536685529
0.335366852969
0.33536685025
0.335366846982
0.33536684289
0.335366837615
0.335366831297
0.335366823592
0.335366814951
0.335366805126
0.335366794675
0.335366783513
0.335366772082
0.335366760417
0.335366748752
0.335366737085
0.335366725462
0.335366713859
0.335366702191
0.335366690537
0.335366678738
0.335366667126
0.335366655522
0.33536664454
0.335366634012
0.33536662468
0.335366616379
0.335366609688
0.335366604475
0.335366600987
0.33536659916
0.335366598943
0.33536660046
0.335366603589
0.323171705893
0.323171707766
0.323171707936
0.323171707173
0.323171705759
0.32317170386
0.323171701832
0.323171699562
0.323171697202
0.323171694431
0.323171691106
0.323171686983
0.323171681717
0.323171675448
0.323171667836
0.323171659317
0.32317164965
0.323171639366
0.323171628388
0.323171617135
0.323171605643
0.323171594133
0.323171582613
0.323171571124
0.323171559656
0.323171548125
0.32317153662
0.323171524987
0.323171513556
0.323171502154
0.323171491376
0.323171481061
0.323171471918
0.323171463796
0.323171457241
0.323171452143
0.323171448723
0.323171446942
0.32317144674
0.323171448246
0.323171451324
0.310976549553
0.310976551429
0.310976551666
0.310976550979
0.310976549643
0.310976547808
0.310976545816
0.310976543552
0.310976541169
0.310976538363
0.310976535002
0.310976530868
0.31097652563
0.310976519428
0.310976511929
0.31097650355
0.310976494062
0.310976483967
0.310976473195
0.310976462144
0.31097645085
0.310976439524
0.310976428179
0.310976416857
0.310976405553
0.31097639419
0.310976382864
0.310976371423
0.310976360199
0.310976349021
0.310976338467
0.310976328383
0.310976319443
0.310976311514
0.310976305107
0.31097630013
0.310976296786
0.310976295054
0.310976294866
0.310976296357
0.310976299375
0.298781392967
0.298781394834
0.298781395125
0.298781394506
0.298781393244
0.298781391474
0.298781389522
0.298781387273
0.298781384878
0.298781382055
0.298781378677
0.298781374552
0.298781369361
0.298781363245
0.298781355876
0.298781347657
0.298781338366
0.298781328481
0.298781317938
0.298781307112
0.298781296042
0.298781284927
0.298781273787
0.298781262659
0.298781251551
0.298781240386
0.298781229266
0.298781218046
0.298781207053
0.298781196121
0.29878118581
0.298781175974
0.298781167253
0.298781159527
0.298781153279
0.298781148433
0.298781145171
0.29878114349
0.298781143315
0.298781144784
0.298781147738
0.286586236138
0.286586237984
0.286586238318
0.286586237762
0.286586236569
0.286586234863
0.286586232954
0.286586230731
0.286586228337
0.286586225512
0.286586222135
0.286586218038
0.286586212912
0.286586206899
0.286586199679
0.286586191638
0.286586182564
0.28658617291
0.286586162616
0.286586152039
0.286586141218
0.28658613034
0.286586119432
0.286586108529
0.286586097645
0.286586086705
0.286586075819
0.286586064846
0.286586054108
0.286586043444
0.286586033395
0.286586023823
0.286586015335
0.286586007826
0.286586001746
0.286585997039
0.286585993864
0.286585992238
0.286585992076
0.286585993519
0.2865859964
0.274391079068
0.274391080883
0.274391081251
0.27439108075
0.274391079624
0.274391077982
0.274391076121
0.27439107393
0.27439107155
0.274391068738
0.274391065381
0.274391061328
0.274391056286
0.274391050392
0.274391043339
0.274391035495
0.274391026657
0.274391017252
0.27439100723
0.274390996924
0.274390986375
0.274390975761
0.274390965112
0.27439095446
0.274390943828
0.274390933142
0.274390922517
0.274390911816
0.274390901355
0.274390890982
0.274390881213
0.274390871921
0.27439086368
0.2743908564
0.274390850499
0.274390845938
0.274390842856
0.274390841287
0.274390841136
0.274390842549
0.274390845353
0.262195921766
0.262195923541
0.262195923935
0.262195923484
0.262195922421
0.262195920843
0.262195919033
0.262195916883
0.262195914529
0.262195911744
0.262195908422
0.262195904431
0.262195899489
0.262195893732
0.262195886863
0.262195879233
0.262195870649
0.262195861514
0.262195851783
0.262195841771
0.262195831518
0.262195821192
0.262195810828
0.262195800455
0.262195790101
0.262195779695
0.262195769357
0.262195758952
0.262195748792
0.262195738728
0.262195729258
0.262195720262
0.262195712281
0.262195705242
0.26219569953
0.262195695122
0.262195692139
0.262195690628
0.262195690488
0.262195691867
0.262195694588
0.250000764241
0.250000765968
0.250000766379
0.250000765973
0.250000764971
0.250000763457
0.250000761702
0.250000759601
0.250000757283
0.25000075454
0.250000751269
0.250000747356
0.25000074253
0.250000736926
0.250000730258
0.25000072286
0.250000714548
0.250000705702
0.250000696282
0.250000686583
0.250000676649
0.250000666636
0.250000656582
0.250000646513
0.250000636464
0.250000626364
0.250000616337
0.250000606252
0.250000596413
0.250000586679
0.250000577524
0.25000056884
0.250000561134
0.250000554346
0.250000548831
0.250000544584
0.250000541705
0.250000540254
0.250000540124
0.250000541466
0.250000544099
0.237805606497
0.237805608169
0.237805608591
0.237805608226
0.237805607281
0.237805605833
0.237805604137
0.237805602091
0.23780559982
0.237805597131
0.237805593926
0.237805590107
0.237805585413
0.237805579978
0.237805573527
0.237805566376
0.237805558353
0.237805549814
0.237805540725
0.237805531361
0.237805521767
0.23780551209
0.237805502369
0.237805492629
0.237805482909
0.23780547314
0.237805463448
0.237805453706
0.23780544421
0.237805434824
0.237805426002
0.237805417644
0.237805410225
0.237805403699
0.237805398392
0.237805394311
0.237805391542
0.237805390153
0.237805390033
0.237805391333
0.237805393874
0.22561044854
0.22561045015
0.225610450577
0.225610450248
0.22561044936
0.225610447977
0.225610446343
0.22561044436
0.225610442146
0.225610439523
0.225610436399
0.225610432687
0.225610428141
0.225610422889
0.225610416671
0.225610409784
0.225610402067
0.225610393853
0.225610385113
0.225610376103
0.225610366871
0.225610357551
0.225610348187
0.2256103388
0.225610329433
0.225610320018
0.225610310683
0.225610301306
0.225610292172
0.225610283154
0.22561027468
0.225610266662
0.225610259544
0.22561025329
0.225610248199
0.225610244291
0.225610241635
0.22561024031
0.225610240199
0.225610241456
0.225610243899
0.21341529038
0.213415291923
0.213415292349
0.213415292052
0.213415291219
0.213415289902
0.213415288335
0.213415286421
0.213415284273
0.213415281728
0.213415278697
0.213415275107
0.213415270722
0.213415265669
0.213415259698
0.213415253091
0.213415245695
0.213415237823
0.21341522945
0.213415220814
0.213415211963
0.213415203022
0.213415194037
0.213415185025
0.213415176033
0.213415166996
0.21341515804
0.213415149047
0.213415140295
0.213415131662
0.213415123553
0.213415115888
0.213415109082
0.21341510311
0.213415098244
0.213415094515
0.213415091977
0.213415090717
0.213415090616
0.213415091824
0.213415094166
0.201220132028
0.201220133499
0.201220133919
0.201220133652
0.201220132871
0.201220131622
0.201220130123
0.201220128285
0.201220126212
0.201220123756
0.201220120831
0.201220117376
0.201220113167
0.201220108325
0.201220102616
0.201220096303
0.201220089245
0.201220081731
0.201220073741
0.201220065498
0.201220057047
0.201220048505
0.20122003992
0.201220031304
0.201220022709
0.201220014071
0.201220005514
0.201219996927
0.201219988574
0.201219980342
0.201219972613
0.201219965315
0.201219958832
0.201219953152
0.201219948519
0.201219944975
0.201219942559
0.201219941365
0.201219941273
0.201219942431
0.201219944667
0.189024973491
0.189024974885
0.189024975295
0.189024975054
0.189024974324
0.189024973144
0.189024971718
0.189024969961
0.189024967971
0.189024965614
0.189024962807
0.189024959499
0.189024955478
0.189024950862
0.189024945428
0.189024939424
0.189024932717
0.189024925577
0.189024917987
0.189024910153
0.189024902121
0.189024893998
0.189024885831
0.189024877633
0.189024869456
0.189024861236
0.189024853098
0.189024844935
0.189024836999
0.189024829185
0.189024821849
0.18902481493
0.189024808782
0.189024803402
0.18902479901
0.189024795655
0.189024793366
0.18902479224
0.189024792156
0.18902479326
0.189024795387
0.176829814774
0.176829816088
0.176829816484
0.176829816266
0.176829815587
0.176829814476
0.176829813126
0.176829811456
0.176829809558
0.176829807309
0.176829804631
0.176829801482
0.176829797662
0.176829793283
0.176829788138
0.176829782455
0.176829776114
0.176829769362
0.176829762188
0.17682975478
0.176829747183
0.176829739497
0.176829731768
0.176829724006
0.176829716265
0.176829708484
0.176829700783
0.176829693062
0.176829685559
0.176829678177
0.176829671249
0.176829664721
0.176829658919
0.176829653847
0.176829649703
0.176829646543
0.176829644384
0.176829643326
0.17682964325
0.176829644299
0.176829646313
0.164634655891
0.164634657121
0.1646346575
0.164634657303
0.164634656673
0.164634655633
0.164634654362
0.164634652784
0.164634650984
0.164634648852
0.164634646314
0.164634643335
0.164634639726
0.164634635597
0.164634630752
0.164634625404
0.164634619442
0.164634613093
0.164634606349
0.164634599381
0.164634592237
0.164634585004
0.164634577731
0.164634570424
0.164634563137
0.164634555812
0.164634548566
0.164634541304
0.164634534249
0.164634527314
0.164634520806
0.164634514681
0.164634509233
0.164634504477
0.164634500588
0.164634497627
0.164634495602
0.164634494614
0.164634494546
0.164634495536
0.164634497434
0.152439496853
0.152439497996
0.152439498355
0.152439498178
0.152439497596
0.152439496627
0.152439495438
0.152439493957
0.152439492263
0.152439490256
0.152439487867
0.152439485068
0.152439481683
0.152439477814
0.152439473281
0.152439468279
0.152439462708
0.152439456775
0.152439450474
0.152439443963
0.152439437285
0.152439430523
0.152439423721
0.152439416886
0.152439410071
0.152439403219
0.152439396444
0.152439389656
0.152439383064
0.152439376589
0.152439370513
0.1524393648
0.152439359717
0.152439355285
0.152439351657
0.152439348899
0.152439347011
0.152439346094
0.152439346033
0.152439346963
0.152439348741
0.140244337668
0.140244338721
0.140244339058
0.140244338899
0.140244338364
0.140244337469
0.140244336364
0.140244334985
0.140244333403
0.140244331529
0.140244329297
0.140244326687
0.140244323536
0.140244319937
0.140244315727
0.140244311083
0.140244305914
0.140244300409
0.140244294564
0.140244288523
0.140244282327
0.140244276049
0.140244269735
0.140244263387
0.140244257059
0.140244250696
0.140244244407
0.140244238107
0.140244231992
0.14024422599
0.140244220357
0.140244215066
0.140244210356
0.140244206254
0.140244202894
0.140244200344
0.140244198596
0.14024419775
0.140244197696
0.140244198562
0.140244200217
0.128049178345
0.128049179306
0.128049179617
0.128049179475
0.128049178988
0.128049178166
0.128049177149
0.128049175876
0.128049174411
0.128049172677
0.128049170612
0.1280491682
0.12804916529
0.128049161972
0.128049158094
0.128049153818
0.128049149062
0.128049143997
0.12804913862
0.128049133061
0.128049127359
0.12804912158
0.128049115767
0.128049109922
0.128049104095
0.128049098236
0.128049092447
0.128049086649
0.128049081024
0.128049075504
0.128049070325
0.128049065465
0.128049061137
0.128049057372
0.128049054285
0.128049051945
0.12804905034
0.128049049566
0.128049049519
0.12804905032
0.128049051849
0.115854018896
0.115854019763
0.115854020048
0.115854019921
0.115854019481
0.115854018734
0.115854017806
0.115854016643
0.115854015301
0.115854013713
0.115854011822
0.115854009615
0.115854006957
0.115854003928
0.115854000391
0.115853996493
0.11585399216
0.115853987544
0.115853982647
0.115853977581
0.115853972386
0.115853967118
0.11585396182
0.11585395649
0.115853951178
0.115853945836
0.115853940559
0.115853935276
0.115853930151
0.115853925126
0.115853920411
0.115853915989
0.11585391205
0.115853908627
0.115853905819
0.115853903692
0.115853902233
0.115853901531
0.115853901491
0.115853902224
0.115853903624
0.103658859334
0.103658860106
0.103658860364
0.103658860251
0.103658859858
0.103658859187
0.10365885835
0.1036588573
0.103658856087
0.103658854651
0.103658852939
0.103658850946
0.103658848546
0.103658845814
0.103658842627
0.103658839115
0.103658835214
0.103658831058
0.103658826649
0.103658822088
0.10365881741
0.103658812666
0.103658807893
0.103658803091
0.103658798306
0.103658793493
0.103658788741
0.103658783983
0.103658779369
0.103658774848
0.103658770605
0.103658766629
0.103658763086
0.10365876001
0.103658757485
0.103658755575
0.103658754263
0.103658753635
0.103658753601
0.103658754264
0.103658755532
0.0914636996686
0.091463700345
0.0914637005735
0.0914637004752
0.0914637001287
0.0914636995338
0.0914636987908
0.0914636978572
0.0914636967756
0.091463695497
0.0914636939722
0.0914636921983
0.091463690064
0.091463687636
0.0914636848064
0.0914636816884
0.0914636782274
0.0914636745392
0.0914636706283
0.0914636665807
0.0914636624302
0.091463658219
0.0914636539833
0.0914636497199
0.0914636454723
0.0914636411999
0.0914636369816
0.0914636327603
0.0914636286667
0.091463624657
0.0914636208942
0.091463617371
0.0914636142307
0.0914636115062
0.091463609268
0.0914636075778
0.0914636064154
0.0914636058604
0.0914636058318
0.0914636064234
0.0914636075565
0.0792685399081
0.0792685404884
0.0792685406871
0.0792685406023
0.0792685403021
0.0792685397848
0.0792685391371
0.0792685383226
0.0792685373771
0.07926853626
0.0792685349273
0.0792685333784
0.0792685315159
0.0792685293985
0.0792685269326
0.0792685242158
0.0792685212017
0.0792685179894
0.079268514584
0.0792685110587
0.079268507444
0.0792685037755
0.0792685000857
0.0792684963708
0.0792684926703
0.0792684889478
0.0792684852732
0.0792684815965
0.0792684780317
0.0792684745415
0.079268471266
0.0792684682012
0.0792684654685
0.0792684630996
0.0792684611523
0.0792684596835
0.0792684586727
0.0792684581914
0.0792684581679
0.079268458686
0.079268459681
0.0670733800663
0.0670733805508
0.0670733807192
0.0670733806476
0.0670733803936
0.0670733799545
0.0670733794037
0.0670733787106
0.0670733779046
0.067073376953
0.067073375817
0.0670733744981
0.0670733729128
0.0670733711115
0.0670733690151
0.0670733667056
0.0670733641446
0.0670733614149
0.0670733585218
0.0670733555262
0.0670733524548
0.067073349337
0.0670733462012
0.0670733430433
0.0670733398981
0.0670733367339
0.0670733336111
0.0670733304868
0.067073327458
0.0670733244938
0.0670733217117
0.0670733191103
0.0670733167898
0.06707331478
0.0670733131269
0.0670733118813
0.0670733110235
0.0670733106162
0.0670733105975
0.06707331104
0.0670733118938
0.0548782201571
0.0548782205467
0.0548782206845
0.0548782206259
0.0548782204181
0.0548782200578
0.0548782196053
0.0548782190356
0.054878218372
0.0548782175891
0.054878216654
0.0548782155691
0.0548782142656
0.0548782127851
0.0548782110631
0.0548782091661
0.0548782070636
0.0548782048221
0.0548782024471
0.0548781999875
0.0548781974659
0.0548781949055
0.0548781923305
0.0548781897369
0.054878187154
0.0548781845552
0.0548781819909
0.0548781794257
0.0548781769391
0.0548781745063
0.0548781722229
0.0548781700889
0.0548781681848
0.0548781665369
0.0548781651807
0.0548781641598
0.0548781634563
0.0548781631231
0.0548781631086
0.054878163474
0.054878164183
0.0426830601894
0.0426830604858
0.042683060593
0.0426830605473
0.0426830603857
0.0426830601048
0.0426830597516
0.0426830593069
0.0426830587882
0.0426830581766
0.0426830574456
0.0426830565983
0.0426830555804
0.0426830544247
0.0426830530811
0.0426830516009
0.0426830499611
0.0426830482126
0.0426830463605
0.042683044442
0.0426830424753
0.042683040478
0.0426830384694
0.042683036446
0.0426830344311
0.0426830324036
0.0426830304034
0.0426830284025
0.0426830264632
0.0426830245664
0.0426830227859
0.0426830211228
0.0426830196384
0.0426830183545
0.0426830172974
0.0426830165024
0.0426830159543
0.0426830156952
0.0426830156846
0.042683015971
0.0426830165316
0.0304879001721
0.0304879003782
0.0304879004547
0.0304879004219
0.0304879003065
0.0304879001055
0.0304878998525
0.030487899534
0.030487899162
0.0304878987238
0.0304878981996
0.0304878975925
0.0304878968631
0.0304878960353
0.0304878950733
0.0304878940134
0.0304878928396
0.0304878915879
0.0304878902623
0.030487888889
0.0304878874812
0.0304878860514
0.0304878846136
0.0304878831649
0.0304878817225
0.0304878802709
0.0304878788391
0.0304878774068
0.0304878760187
0.0304878746613
0.0304878733871
0.0304878721974
0.0304878711352
0.0304878702172
0.0304878694609
0.0304878688926
0.0304878685006
0.0304878683157
0.0304878683085
0.0304878685145
0.0304878689222
0.0182927401191
0.0182927402387
0.0182927402847
0.0182927402649
0.0182927401956
0.0182927400749
0.0182927399228
0.0182927397314
0.0182927395075
0.0182927392441
0.0182927389286
0.0182927385636
0.018292738125
0.0182927376273
0.0182927370491
0.018292736412
0.0182927357067
0.0182927349545
0.018292734158
0.0182927333328
0.0182927324869
0.0182927316277
0.0182927307638
0.0182927298931
0.0182927290264
0.018292728154
0.0182927272936
0.0182927264329
0.0182927255988
0.0182927247834
0.0182927240178
0.0182927233033
0.0182927226652
0.018292722114
0.0182927216598
0.0182927213187
0.0182927210833
0.0182927209725
0.0182927209683
0.0182927210926
0.0182927213425
0.00609758004414
0.00609758008286
0.00609758009822
0.00609758009153
0.00609758006845
0.00609758002811
0.00609757997736
0.00609757991348
0.0060975798387
0.00609757975078
0.00609757964541
0.0060975795236
0.00609757937711
0.00609757921102
0.00609757901798
0.00609757880537
0.00609757856997
0.00609757831893
0.00609757805313
0.00609757777773
0.00609757749549
0.00609757720874
0.00609757692047
0.00609757662989
0.0060975763407
0.00609757604952
0.00609757576243
0.00609757547518
0.00609757519688
0.00609757492477
0.00609757466933
0.00609757443097
0.00609757421807
0.00609757403426
0.0060975738827
0.00609757376902
0.00609757369049
0.00609757365361
0.00609757365225
0.00609757369388
0.00609757377968
)
;

boundaryField
{
    in
    {
        type            zeroGradient;
    }
    out
    {
        type            zeroGradient;
    }
    top
    {
        type            fixedValue;
        value           uniform 0;
    }
    bottom
    {
        type            fixedGradient;
        gradient        nonuniform List<scalar> 
41
(
0.499982062763
0.499985809568
0.499991706819
0.499998033523
0.500003656918
0.500008245577
0.500012217024
0.500016047703
0.500019723089
0.500022767544
0.500024511167
0.500024250195
0.500021373453
0.500015577318
0.500007062839
0.499996589477
0.499985355585
0.499974785043
0.499966291281
0.499961055334
0.499959844536
0.499962890562
0.499969844474
0.499979813195
0.499991476814
0.500003290969
0.500013733657
0.50002157099
0.500026102732
0.500027273396
0.50002560124
0.500021943509
0.500017200121
0.500012106002
0.500007035839
0.500001832025
0.499995974386
0.499989233331
0.499982045223
0.499975549036
0.499971556551
)
;
    }
    frontback
    {
        type            empty;
    }
}


// ************************************************************************* //
