/*--------------------------------*- C++ -*----------------------------------*\
| =========                 |                                                 |
| \\      /  F ield         | OpenFOAM: The Open Source CFD Toolbox           |
|  \\    /   O peration     | Version:  2112                                  |
|   \\  /    A nd           | Website:  www.openfoam.com                      |
|    \\/     M anipulation  |                                                 |
\*---------------------------------------------------------------------------*/
FoamFile
{
    version     2.0;
    format      ascii;
    arch        "LSB;label=32;scalar=64";
    class       volScalarField;
    location    "0.8";
    object      T;
}
// * * * * * * * * * * * * * * * * * * * * * * * * * * * * * * * * * * * * * //

dimensions      [0 0 0 1 0 0 0];

internalField   nonuniform List<scalar> 
1681
(
302.699488153
304.683542001
305.626596636
306.312667714
306.870667472
307.313683613
307.671662312
307.963483471
308.201966971
308.39714116
308.556885329
308.687517381
308.794182525
308.881107612
308.951782543
309.009097539
309.055448867
309.092823269
309.122866392
309.146939202
309.166164854
309.18146792
309.193607335
309.20320415
309.210764911
309.216701332
309.221346837
309.224970474
309.227788597
309.229974612
309.231667117
309.232976752
309.233992016
309.234784265
309.235411825
309.235922618
309.236360075
309.236768449
309.237145952
309.237495838
309.237946217
302.244044214
304.267716802
305.298567218
306.021701852
306.593696376
307.04623335
307.410353751
307.706183136
307.947407613
308.144480001
308.305548358
308.437108822
308.54442513
308.631805499
308.702796571
308.760328627
308.80682646
308.844297272
308.87440145
308.898510603
308.917755575
308.933066478
308.94520622
308.95479868
308.962352383
308.968280407
308.972917089
308.976532066
308.979342036
308.981520575
308.983206337
308.984509951
308.985519873
308.986307427
308.98693098
308.987439023
308.987875355
308.988281944
308.988667354
308.989050639
308.989565069
301.893145658
303.893528615
304.983955231
305.737719293
306.322397612
306.7831956
307.152656011
307.45195956
307.695527424
307.894196727
308.056356758
308.188663645
308.296487633
308.384209735
308.455426959
308.51310478
308.559692722
308.597215444
308.62734567
308.651463725
308.670706586
308.686008657
308.698135817
308.707713962
308.715252958
308.721166732
308.725790134
308.729393067
308.732192324
308.734361461
308.736039039
308.73733556
308.738339355
308.739121649
308.739740818
308.740245774
308.740680579
308.74108611
308.741479406
308.741891077
308.742446705
301.619210287
303.558349642
304.684379201
305.461753978
306.057189141
306.5248747
306.898792168
307.200975532
307.446449496
307.646385028
307.809381782
307.942235677
308.050410142
308.138349511
308.20969416
308.267439433
308.314055438
308.351581014
308.381698607
308.405795162
308.425012103
308.440286765
308.452386902
308.461939555
308.469455223
308.475348128
308.479953185
308.483540212
308.486325824
308.488483342
308.490151069
308.491439252
308.492435997
308.493212362
308.493826677
308.49432814
308.494761024
308.495165871
308.495566578
308.496001979
308.496587662
301.40247496
303.258744546
304.400677436
305.194580181
305.798422658
306.27152144
306.648946677
306.953366306
307.200276095
307.401122991
307.564683211
307.697870614
307.80622736
307.894250869
307.96561735
308.023346289
308.069923938
308.107399814
308.137463298
308.161505716
308.18067114
308.19589839
308.207955933
308.217471016
308.224954027
308.230818884
308.235400091
308.23896701
308.24173578
308.243879255
308.245535305
308.246813783
308.247802464
308.248572155
308.249181075
308.249678596
308.250109155
308.250513414
308.250920746
308.251375668
308.251983949
301.228651683
302.991013443
304.133090429
304.936729751
305.546375081
306.0233346
306.403266612
306.709239736
306.957088084
307.158471704
307.322307194
307.455603169
307.563965132
307.651932709
307.723209957
307.780834447
307.827303887
307.864674779
307.894640502
307.918594413
307.937681348
307.952840093
307.964838604
307.974303357
307.981743843
307.987573051
307.992124576
307.995666927
307.998415458
308.000542317
308.002184746
308.003452063
308.004431595
308.005193812
308.005796746
308.006289838
308.006717649
308.007121194
308.00753416
308.00800482
308.008629903
301.087326662
302.751510275
303.881420121
304.688519257
305.301246698
305.780464127
306.161864692
306.468678592
306.716946804
306.918476653
307.082287208
307.215457641
307.323640668
307.411406722
307.48247935
307.539907878
307.586196572
307.623405073
307.653227704
307.677057411
307.696037833
307.711106146
307.723028533
307.732429679
307.739817368
307.745603008
307.750118772
307.753631905
307.756356654
307.758464209
307.760090989
307.761345621
307.762314869
307.763068769
307.763665089
307.764153235
307.764577844
307.764980377
307.765397855
307.765880861
307.76651799
300.970851477
302.536816666
303.64516134
304.450081165
305.063163375
305.543014542
305.924822326
306.231742969
306.479896131
306.681169426
306.844645445
306.977449023
307.085263411
307.172678054
307.24342733
307.300565765
307.346599128
307.383586221
307.413219162
307.436887969
307.455733068
307.470688405
307.482517088
307.491840971
307.499165293
307.504899217
307.50937296
307.512852087
307.515549406
307.517634888
307.519243928
307.520484305
307.521442096
307.522186805
307.522775852
307.52325851
307.523679436
307.524080526
307.524501312
307.524993621
307.525638799
300.873566436
302.343825028
303.423605977
304.221395547
304.832181412
305.311048392
305.692192359
305.998472433
306.245964273
306.446569213
306.609394048
306.741584019
306.848835873
306.935745981
307.006050667
307.062802942
307.108504877
307.14521037
307.174606104
307.198076598
307.216757002
307.23157638
307.243293438
307.252526134
307.259776312
307.265450209
307.269875551
307.273315787
307.275981955
307.27804254
307.279631709
307.280856229
307.281801364
307.282535988
307.283117079
307.283593687
307.284010417
307.28440953
307.284832386
307.285331257
307.285981073
300.791251685
302.169766559
303.21592288
304.002320147
304.608294065
305.084589743
305.464001546
305.768887859
306.015165267
306.214684039
306.376536137
306.507861894
306.614354331
306.700604479
306.770341576
306.826610265
306.871903637
306.908266534
306.937376926
306.960611216
306.979097183
306.993757333
307.005344623
307.014472037
307.021637162
307.027242622
307.031613101
307.035009506
307.037640758
307.03967359
307.04124073
307.042447771
307.043379036
307.044102664
307.044675102
307.045145082
307.045557076
307.045953602
307.046377276
307.046880233
307.047531737
300.720736428
302.012207256
303.021217329
303.792617577
304.391438958
304.863627698
305.240252817
305.542993033
305.78750024
305.985511794
306.14606665
306.27627516
306.381809391
306.467242694
306.536288091
306.591974932
306.636781972
306.672740804
306.701517361
306.724477283
306.742738866
306.757216363
306.768655623
306.777663572
306.784732666
306.790261228
306.794570346
306.797917951
306.8005105
306.802512707
306.80405565
306.805243583
306.806159756
306.806871469
306.807434545
306.807897305
306.808304001
306.808697275
306.809120523
306.809625321
306.810275927
300.659618945
301.869026593
302.838574015
303.591979058
304.181505804
304.648119923
305.020927368
305.320776069
305.562958473
305.759041069
305.91797302
306.046810136
306.151186451
306.235645313
306.303874373
306.358880726
306.403123399
306.438616509
306.467010606
306.489657908
306.507665099
306.521936476
306.533209418
306.542083697
306.549045773
306.554488967
306.558730223
306.562024055
306.564574115
306.566542826
306.568059404
306.5692266
306.570126458
306.570825334
306.571378333
306.571833272
306.572234089
306.572623406
306.573045006
306.573549596
306.574197009
300.606064836
301.738387947
302.667087096
303.400044556
303.978344012
304.437996119
304.805986639
305.102210673
305.341518318
305.535251872
305.692235745
305.819447404
305.922466067
306.005792868
306.073080963
306.127308223
306.170908553
306.205874353
306.23383744
306.256133942
306.273856799
306.287898647
306.298987032
306.307713482
306.314557588
306.319906974
306.324073892
306.327308999
306.329812801
306.331745159
306.333233215
306.33437805
306.335260377
306.335945495
306.336487699
306.336934209
306.337328552
306.337713183
306.338131942
306.338634449
306.339276608
300.558660853
301.61870626
302.505880344
303.216419452
303.781769881
304.233161398
304.595374166
304.8872573
305.123148004
305.314116228
305.46882886
305.594162187
305.695624265
305.777661991
305.843884982
305.897234962
305.940115326
305.974492532
306.001976316
306.023884052
306.041292812
306.055081871
306.065967581
306.07453214
306.081247401
306.086494605
306.090580757
306.093752229
306.096206034
306.098099207
306.099556603
306.100677471
306.101541058
306.102211503
306.102742196
306.103179665
306.103566929
306.103946131
306.104360892
306.104859588
306.105494623
300.516308437
301.508616103
302.354119902
303.040688041
303.591573208
304.033499496
304.38901734
304.675864219
304.907806352
305.095598702
305.247720333
305.370924669
305.470632796
305.551225617
305.616260304
305.668635578
305.710718979
305.744446822
305.771403435
305.792884786
305.809949969
305.823463207
305.834128307
305.842517061
305.849092721
305.854229457
305.858228491
305.861331473
305.86373159
305.865582779
305.867007405
305.868102719
305.868946373
305.869601239
305.870119708
305.870547525
305.870927099
305.871300121
305.871709766
305.872203054
305.87282925
300.478145774
301.406941829
302.211021591
302.872424224
303.407523199
303.838875809
304.186829065
304.467968495
304.695443423
304.879656862
305.028872417
305.149700261
305.247459347
305.326453162
305.390177701
305.441481925
305.482692245
305.515710669
305.542092817
305.563110632
305.579803132
305.593017819
305.603444616
305.61164384
305.618069293
305.623087399
305.626993053
305.630022766
305.632365558
305.63417201
305.635561789
305.636629987
305.637452532
305.638090925
305.638596464
305.63901402
305.639385292
305.639751386
305.640154836
305.640641233
305.641257004
300.443490415
301.312670638
302.075854342
302.711199795
303.22937365
303.64914019
303.98870932
304.26349692
304.486001112
304.666241687
304.81224195
304.930449839
305.026067734
305.103310673
305.165604962
305.21574318
305.25600541
305.28825525
305.314016361
305.334534066
305.350825243
305.363719015
305.37389011
305.38188631
305.388151134
305.393042588
305.396848716
305.399800464
305.402082364
305.403841377
305.405194272
305.406233822
305.407034105
305.407655147
305.408147059
305.408553749
305.40891611
305.409274532
305.409670752
305.410148871
305.410752742
300.411796795
301.224928791
301.947940891
302.556590699
303.056867401
303.464129515
303.794546613
304.06236687
304.279413694
304.455297946
304.597780632
304.713129947
304.806418061
304.881760958
304.942507005
304.991385928
305.030626389
305.062049547
305.087143901
305.107125604
305.122987358
305.135538286
305.145436619
305.153216574
305.159310556
305.164067503
305.167768083
305.170637275
305.172854791
305.174563723
305.175877741
305.176887145
305.177664038
305.178266867
305.178744467
305.179139694
305.179492539
305.179842561
305.180230553
305.180699097
305.181289682
300.382624608
301.142960942
301.826656635
302.408181615
302.889740091
303.283669988
303.604219339
303.864487127
304.075608345
304.246764543
304.385435268
304.497692994
304.588466868
304.661763711
304.720845975
304.768374249
304.8065208
304.837060403
304.861443258
304.880853846
304.896258696
304.908445342
304.918054239
304.92560503
304.931518197
304.936132966
304.939722124
304.942504276
304.944654003
304.946310278
304.947583478
304.948561275
304.949313678
304.949897453
304.95036007
304.950743248
304.951085979
304.951426884
304.951805695
304.952263444
304.952839437
300.355615101
301.066112356
301.711427291
302.265569179
302.72772327
303.107579196
303.417597028
303.669758632
303.874505621
304.040574845
304.175148006
304.284087416
304.37216727
304.443275616
304.500581335
304.546669795
304.583652029
304.613252583
304.636880291
304.655685522
304.67060668
304.682408147
304.691711367
304.699020411
304.704743052
304.709208178
304.712680197
304.71537095
304.717449576
304.71905069
304.720281185
304.721225957
304.7219528
304.722516701
304.722963681
304.723334233
304.723666266
304.723997355
304.72436607
304.724811874
304.725372039
300.330473212
300.993813725
301.601725821
302.128364104
302.570546922
302.935667906
303.234541487
303.478075203
303.676019913
303.836656985
303.966856552
304.072257851
304.157469083
304.226250456
304.281669955
304.326231861
304.361981292
304.390588827
304.413418952
304.431585541
304.445996975
304.457392965
304.466374734
304.473429817
304.478952507
304.483260748
304.486610083
304.48920521
304.491209527
304.492753053
304.493939015
304.494849387
304.495549633
304.496092867
304.496523572
304.496880937
304.497201699
304.497522294
304.497880038
304.498312809
304.498855972
300.306953998
300.925568262
301.497068954
301.996192442
302.417941474
302.767741624
303.054907835
303.289324194
303.480059881
303.634934157
303.760494376
303.862145284
303.944318945
304.010639208
304.064066192
304.107017462
304.141467703
304.169029911
304.191021332
304.208517036
304.222393534
304.233364398
304.24200945
304.248798752
304.254112378
304.258256729
304.261478022
304.263973438
304.265900346
304.267383941
304.268523606
304.269398251
304.2700709
304.270592696
304.271006509
304.271350141
304.271659076
304.27196852
304.272314456
304.272733166
304.273258208
300.284852263
300.86094076
301.397013548
301.868696167
302.269639336
302.603601922
302.878545431
303.10338711
303.286528858
303.43532489
303.555990913
303.653687206
303.732660439
303.796390143
303.847721975
303.888981401
303.922068336
303.948534701
303.969647716
303.986441413
303.99975865
304.010285431
304.018579043
304.025091171
304.030186946
304.03416066
304.037248749
304.039640522
304.041487037
304.042908447
304.044000115
304.044837758
304.045481845
304.045981465
304.046377789
304.04670716
304.047003727
304.047301387
304.047634715
304.048038388
304.048544242
300.263994575
300.799548326
301.301152923
301.745533227
302.125376054
302.443047556
302.705298703
302.920140174
303.095325233
303.237743319
303.353271759
303.446817756
303.522434203
303.583448926
303.632586889
303.672076347
303.703738287
303.729060218
303.749256643
303.765318408
303.778052997
303.788117478
303.796045506
303.802269517
303.807139007
303.810935607
303.813885538
303.816169896
303.817933157
303.819290219
303.820332265
303.821131682
303.821746284
303.822223017
303.822601278
303.822915878
303.823199558
303.823484824
303.823804783
303.824192492
303.824678137
300.244233058
300.74105253
301.209113291
301.626377205
301.984891116
302.285875377
302.535007874
302.739454844
302.906342816
303.042099436
303.152258854
303.241467868
303.313578056
303.371758707
303.418608257
303.456252903
303.48643075
303.510561696
303.529804957
303.545106135
303.55723569
303.566820436
303.574369347
303.580294774
303.584929913
303.588543209
303.59135025
303.593523588
303.595200861
303.596491513
303.597482383
303.598242406
303.598826641
303.599279809
303.599639458
303.599938799
303.600209091
303.600481379
303.600787242
303.601158107
303.601622569
300.225440536
300.685152735
301.120550324
301.510916678
301.847928476
302.13188108
302.367509594
302.561198287
302.719471174
302.848299342
302.952870671
303.037565414
303.106027107
303.161260226
303.205731229
303.241459687
303.270097079
303.292992647
303.311247875
303.325761148
303.337264335
303.346352735
303.35350964
303.359126517
303.363519628
303.366943728
303.369603375
303.371662266
303.373250955
303.374473235
303.375411452
303.376130971
303.376684002
303.377112958
303.377453473
303.377737087
303.377993512
303.378252266
303.378543343
303.378896526
303.379338872
300.207506701
300.631580413
301.035145891
301.398854355
301.714236834
301.980859783
302.202637491
302.385233807
302.53459595
302.656245482
302.755022396
302.835035349
302.899713876
302.951891911
302.993898867
303.027643413
303.054686863
303.076304931
303.093539043
303.107238504
303.118095092
303.126671399
303.133424082
303.138722966
303.142866777
303.146096102
303.148604093
303.150545294
303.15204294
303.153194993
303.154079163
303.15475713
303.155278163
303.155682296
303.156003181
303.156270624
303.156512728
303.156757417
303.157033052
303.157367758
303.157787097
300.190335047
300.580094276
300.952604999
301.289906072
301.583569722
301.832606473
302.040222638
302.211421235
302.351599167
302.465836874
302.558626106
302.633799856
302.694568417
302.743589979
302.783052238
302.814748967
302.840148004
302.860448828
302.876630612
302.889491821
302.899682733
302.907732102
302.914069051
302.919041046
302.922928707
302.925958005
302.928310328
302.930130787
302.931535078
302.932615159
302.933443969
302.934079398
302.934567689
302.934946424
302.935247211
302.935498064
302.935725415
302.935955538
302.936215109
302.936530582
302.93692606
300.173840402
300.530476071
300.872652908
301.183799672
301.45568544
301.686916339
301.880093954
302.039617285
302.170359513
302.276969338
302.363590955
302.433778494
302.490518442
302.536288552
302.573130512
302.602719503
302.626426798
302.645373108
302.660473304
302.672473356
302.681980714
302.689489239
302.695399671
302.700036448
302.703661549
302.706485905
302.708678807
302.71037567
302.711684446
302.712690926
302.71346315
302.71405512
302.714509971
302.714862772
302.715143022
302.715376891
302.715589083
302.715804166
302.716047088
302.716342609
302.716713409
300.157946904
300.48252692
300.795032453
301.080273851
301.330346871
301.543585006
301.722078544
301.869675877
301.990752612
302.089535717
302.169823352
302.234888348
302.287489448
302.329919761
302.364071059
302.391496527
302.413468016
302.431025116
302.445016488
302.456134067
302.464941241
302.471895989
302.477369881
302.481663697
302.485020282
302.487635131
302.489665128
302.491235747
302.492447002
302.493378368
302.49409287
302.494640527
302.495061294
302.495387659
302.495646966
302.495863483
302.496060136
302.496259736
302.496485455
302.496760343
302.497105683
300.142586329
300.436064113
300.719501536
300.97907698
301.20732123
301.402408712
301.566002009
301.701448443
301.812651297
301.903426107
301.977227153
302.037044195
302.08540486
302.124413875
302.155809562
302.181020001
302.201214998
302.217350857
302.230208266
302.240423701
302.248515348
302.25490439
302.2599325
302.263876222
302.266958803
302.269359941
302.271223825
302.272665761
302.273777651
302.274632513
302.275288249
302.275790807
302.276176896
302.276476367
302.276714355
302.27691318
302.277093942
302.277277644
302.277485642
302.27773925
302.278058379
300.127696679
300.390918249
300.645830826
300.879965976
301.086379772
301.263184436
301.411688715
301.534784231
301.635925885
301.718528095
301.785703868
301.840158674
301.884186177
301.919699431
301.948280133
301.971228449
301.989609752
302.004295085
302.015995551
302.02529087
302.032652975
302.038465418
302.043039309
302.046626426
302.049429998
302.051613593
302.05330844
302.054619474
302.055630318
302.056407411
302.057003429
302.057460176
302.057811046
302.058083205
302.05829953
302.058480352
302.058644897
302.058812319
302.059002112
302.059233828
302.059526022
300.113220972
300.346930703
300.573801663
300.782705262
300.967297524
301.12571003
301.258962083
301.369530616
301.460444468
301.534727014
301.595152876
301.644142482
301.683753143
301.715703377
301.741415441
301.76205907
301.778593058
301.791801404
301.802324171
301.81068314
301.817303051
301.822529067
301.826641131
301.829865773
301.832385825
301.834348423
301.835871601
301.837049734
301.837958022
301.838656208
301.839191654
301.839601947
301.839917114
301.840161584
301.840355938
301.840518473
301.840666506
301.840817294
301.840988435
301.841197677
301.841462237
300.099106198
300.303951362
300.503204204
300.687065872
300.849853085
300.989784386
301.107644895
301.205533441
301.28607324
301.351906241
301.40547169
301.44890459
301.484023938
301.512351245
301.535146863
301.553447878
301.568104593
301.579812381
301.589138962
301.596547132
301.602413592
301.607044439
301.61068791
301.613544862
301.615777388
301.617515925
301.618865099
301.619908559
301.620712954
301.621331224
301.621805343
301.622168614
301.622447649
301.622664096
301.622836203
301.622980199
301.623111452
301.623245288
301.623397362
301.623583584
301.623819828
300.085302398
300.261836653
300.433835909
300.592824802
300.733828561
300.855207695
300.957559682
301.042637437
301.112676892
301.169947544
301.216556257
301.254352512
301.284915404
301.309567345
301.329404658
301.345329847
301.358083064
301.368269663
301.376383888
301.382828625
301.387931795
301.391959836
301.39512881
301.397613522
301.39955503
301.401066835
301.402239973
301.403147219
301.403846554
301.404384034
301.404796169
301.405111927
301.405354455
301.405542589
301.405692209
301.405817444
301.40593168
301.406048276
301.406180908
301.406343596
301.406550848
300.071761879
300.220447928
300.365500447
300.499764696
300.619009731
300.721781861
300.80852924
300.880686739
300.940119093
300.988731516
301.028301333
301.060392626
301.086343321
301.107275001
301.124118167
301.137639096
301.148466368
301.157114128
301.164002168
301.169472674
301.173804151
301.177222871
301.179912311
301.182020905
301.183668421
301.184951222
301.185946594
301.186716316
301.187309606
301.187765553
301.188115147
301.188382974
301.18858868
301.188748256
301.188875184
301.188981466
301.189078478
301.189177582
301.189290433
301.189429106
301.18960669
300.058438571
300.179650347
300.298007234
300.407674008
300.505186538
300.58931116
300.660377334
300.719525584
300.768263127
300.80813813
300.840600964
300.866930578
300.888222753
300.905396849
300.919216067
300.930309103
300.939191779
300.946286046
300.951936426
300.95642375
300.959976571
300.962780575
300.964986316
300.966715588
300.968066656
300.969118581
300.969934764
300.970565885
300.971052316
300.971426122
300.971712718
300.971932272
300.972100898
300.972231713
300.972335779
300.972422948
300.972502561
300.972583955
300.972676727
300.972790941
300.972938161
300.045287584
300.139312529
300.231171861
300.316347816
300.392154057
300.457603255
300.512929713
300.558999241
300.596972725
300.628047464
300.653349105
300.67387181
300.690468491
300.703855207
300.71462669
300.723272976
300.730196186
300.735725283
300.740128869
300.743625889
300.746394525
300.748579532
300.750298273
300.751645686
300.752698367
300.753517935
300.754153806
300.754645478
300.755024414
300.755315599
300.755538841
300.755709854
300.755841197
300.755943091
300.75602416
300.756092087
300.756154158
300.756217659
300.7562901
300.756379449
300.756495572
300.032265086
300.099307453
300.164817803
300.225589499
300.279714112
300.326470722
300.36601554
300.398955309
300.426113207
300.448340679
300.466440443
300.481122247
300.492995628
300.502572556
300.510278421
300.51646379
300.521416373
300.525371544
300.528521497
300.531022889
300.533003209
300.534566026
300.53579531
300.536758979
300.537511831
300.538097947
300.538552677
300.538904274
300.539175243
300.539383457
300.539543082
300.539665359
300.539759269
300.539832126
300.539890099
300.539938685
300.539983101
300.540028565
300.540080467
300.540144598
300.540228824
300.019328723
300.059515362
300.09877995
300.135213557
300.167677794
300.195733276
300.219469426
300.239245504
300.25555303
300.26890133
300.279771499
300.288589219
300.29572032
300.30147217
300.306100224
300.309815026
300.312789388
300.315164688
300.317056368
300.318558527
300.319747741
300.320686217
300.321424388
300.322003048
300.322455107
300.32280704
300.323080075
300.323291182
300.323453873
300.323578883
300.323674719
300.32374813
300.32380451
300.323848252
300.32388306
300.323912238
300.323938919
300.323966241
300.323997448
300.324036068
300.324087494
300.006438908
300.019829866
300.032910719
300.045049874
300.055869193
300.065220975
300.073134305
300.079728137
300.085165912
300.089617147
300.093242116
300.096182679
300.098560796
300.100478949
300.102022325
300.103261137
300.104253016
300.105045114
300.10567593
300.106176847
300.106573403
300.106886344
300.107132489
300.107325442
300.107476179
300.107593527
300.107684567
300.107754957
300.107809203
300.107850884
300.107882837
300.107907314
300.107926112
300.107940696
300.107952302
300.107962032
300.107970931
300.107980045
300.107990459
300.108003362
300.10802093
)
;

boundaryField
{
    in
    {
        type            fixedValue;
        value           uniform 300;
    }
    out
    {
        type            zeroGradient;
    }
    top
    {
        type            fixedValue;
        value           uniform 300;
    }
    bottom
    {
        type            fixedGradient;
        gradient        nonuniform List<scalar> 
41
(
24.552829098
18.7921287939
13.8927507287
12.1617981203
11.5680803434
11.1303538834
10.8495044258
10.6661023146
10.5392251569
10.4503821184
10.3875698597
10.3428229075
10.3108504445
10.2880073086
10.2717346916
10.2602127839
10.2521327358
10.2465452268
10.242757451
10.2402617808
10.2386856506
10.2377556707
10.237271702
10.2370881136
10.2370999646
10.2372325007
10.2374332576
10.2376664086
10.2379086765
10.2381460075
10.2383707144
10.2385792078
10.2387699296
10.2389421555
10.239093608
10.2391938382
10.2392196603
10.2393394657
10.2390402775
10.2374727276
10.2357350487
)
;
    }
    frontback
    {
        type            empty;
    }
}


// ************************************************************************* //
