/*--------------------------------*- C++ -*----------------------------------*\
| =========                 |                                                 |
| \\      /  F ield         | OpenFOAM: The Open Source CFD Toolbox           |
|  \\    /   O peration     | Version:  2112                                  |
|   \\  /    A nd           | Website:  www.openfoam.com                      |
|    \\/     M anipulation  |                                                 |
\*---------------------------------------------------------------------------*/
FoamFile
{
    version     2.0;
    format      ascii;
    arch        "LSB;label=32;scalar=64";
    class       volVectorField;
    location    "0.8";
    object      U;
}
// * * * * * * * * * * * * * * * * * * * * * * * * * * * * * * * * * * * * * //

dimensions      [0 1 -1 0 0 0 0];

internalField   nonuniform List<vector> 
1681
(
(0.113095983193 0.0397627777713 0)
(0.10559373248 0.00404140581612 0)
(0.0753206983622 0.000263626374535 0)
(0.0773212180305 0.000259727319681 0)
(0.0747911180256 -5.2590526988e-05 0)
(0.0756236077833 2.64594090121e-05 0)
(0.0753165684649 -1.91561333399e-05 0)
(0.0755320395976 4.07547812726e-06 0)
(0.075475929002 -4.21385772621e-06 0)
(0.075520160352 1.09956832377e-06 0)
(0.0755057850151 -7.77036694035e-07 0)
(0.0755140984404 3.13669550981e-07 0)
(0.0755103863601 -1.4410043679e-07 0)
(0.0755120175302 7.74032748504e-08 0)
(0.075511149992 -3.02001864857e-08 0)
(0.0755115037418 1.70050309911e-08 0)
(0.0755113156435 -6.97449927005e-09 0)
(0.0755113969241 3.56668938361e-09 0)
(0.0755113570499 -1.62981422793e-09 0)
(0.0755113756951 7.56216506986e-10 0)
(0.0755113671053 -3.69010899734e-10 0)
(0.0755113712794 1.65700189595e-10 0)
(0.0755113693843 -8.16308956378e-11 0)
(0.0755113703012 3.68861945173e-11 0)
(0.0755113698777 -1.75684484642e-11 0)
(0.0755113700784 8.17399402131e-12 0)
(0.0755113699841 -3.83469339095e-12 0)
(0.0755113700287 1.995446835e-12 0)
(0.0755113700078 -1.19364606961e-12 0)
(0.0755113700172 3.02526953578e-13 0)
(0.0755113700125 -3.28275350316e-14 0)
(0.0755113700148 -4.84315639899e-14 0)
(0.0755113700139 -1.53247232405e-14 0)
(0.0755113700144 -1.07325186047e-14 0)
(0.075511370014 -9.41682720739e-14 0)
(0.0755113700141 -2.06355893216e-13 0)
(0.0755113700141 6.77845967904e-14 0)
(0.0755113700141 1.23757442763e-13 0)
(0.0755113700139 6.87517951667e-14 0)
(0.075511370014 -4.53846833012e-14 0)
(0.0755113700142 -1.07687128905e-13 0)
(0.261383903677 0.102230113053 0)
(0.258090326412 0.0143135473899 0)
(0.195428690567 0.00220889794981 0)
(0.198566140926 0.00106787294564 0)
(0.19244465966 -7.26853095933e-05 0)
(0.194183761153 7.89861451193e-05 0)
(0.193468050394 -6.19511662105e-05 0)
(0.193953540497 6.55988669024e-06 0)
(0.193830981362 -1.47373903867e-05 0)
(0.193933118065 2.22731314613e-06 0)
(0.19390187005 -2.55483868442e-06 0)
(0.193921022148 8.53265277048e-07 0)
(0.193912774821 -4.18077388464e-07 0)
(0.193916471394 2.35688807229e-07 0)
(0.193914512432 -8.14480205397e-08 0)
(0.193915304383 5.26555017276e-08 0)
(0.193914877233 -1.92155333765e-08 0)
(0.193915059063 1.07269500843e-08 0)
(0.193914968702 -4.69729676095e-09 0)
(0.193915010604 2.19741376596e-09 0)
(0.193914991227 -1.09084725555e-09 0)
(0.193915000642 4.74959313523e-10 0)
(0.193914996378 -2.41697688516e-10 0)
(0.19391499845 1.06613240676e-10 0)
(0.193914997497 -5.18856946475e-11 0)
(0.19391499795 2.42220746355e-11 0)
(0.193914997738 -1.13201648655e-11 0)
(0.193914997838 5.49078979164e-12 0)
(0.193914997791 -2.96138796274e-12 0)
(0.193914997812 8.82864151921e-13 0)
(0.193914997801 -4.4298228901e-13 0)
(0.193914997806 3.26570952516e-13 0)
(0.193914997804 -8.89075934301e-14 0)
(0.193914997805 -1.26415227417e-13 0)
(0.193914997805 -2.01447364897e-13 0)
(0.193914997805 -3.04544926904e-13 0)
(0.193914997805 2.9847855943e-13 0)
(0.193914997805 -1.49831239682e-14 0)
(0.193914997804 -1.42493313388e-13 0)
(0.193914997805 -1.20120693829e-13 0)
(0.193914997805 2.94687799745e-13 0)
(0.357968266799 0.136051010568 0)
(0.367129584365 0.0268451048744 0)
(0.290113505817 0.00648377212738 0)
(0.293525474717 0.00232299708173 0)
(0.284927588016 9.25547434029e-05 0)
(0.287143392005 0.000125379402889 0)
(0.286138419099 -0.000105625887568 0)
(0.286791057404 -2.68792093158e-06 0)
(0.286626002754 -2.77539805221e-05 0)
(0.286766275556 9.58018984867e-07 0)
(0.286724769541 -4.51175742134e-06 0)
(0.286751171955 1.11504153464e-06 0)
(0.286740104836 -6.21293262273e-07 0)
(0.286745159924 3.73638575829e-07 0)
(0.286742502832 -1.05777235948e-07 0)
(0.286743576174 8.57317876791e-08 0)
(0.286742993736 -2.59086291079e-08 0)
(0.286743239578 1.67796765129e-08 0)
(0.286743116363 -6.85433018488e-09 0)
(0.286743173133 3.25797896891e-09 0)
(0.286743146775 -1.65934427493e-09 0)
(0.286743159564 6.88057635682e-10 0)
(0.286743153776 -3.68791173684e-10 0)
(0.286743156593 1.55787913416e-10 0)
(0.2867431553 -7.80407362083e-11 0)
(0.286743155916 3.62091242689e-11 0)
(0.286743155628 -1.68661975921e-11 0)
(0.286743155763 8.3357493002e-12 0)
(0.286743155699 -4.57756416134e-12 0)
(0.286743155729 1.48371735884e-12 0)
(0.286743155714 -6.83354540283e-13 0)
(0.286743155721 8.06005183204e-13 0)
(0.286743155718 -2.78598281346e-13 0)
(0.28674315572 -4.88079660524e-13 0)
(0.286743155719 -1.39217016189e-13 0)
(0.286743155719 -2.32492734738e-13 0)
(0.286743155719 3.38755034333e-13 0)
(0.286743155719 -7.5584383996e-14 0)
(0.286743155719 -9.3381936942e-14 0)
(0.286743155719 -1.50712903912e-13 0)
(0.286743155719 1.89162189779e-13 0)
(0.420240366027 0.151568552282 0)
(0.444346484277 0.0385079454313 0)
(0.364026239534 0.0118880252542 0)
(0.367747655305 0.00379822042218 0)
(0.357580303396 0.000423919211895 0)
(0.360039120484 0.000165742584021 0)
(0.35882229991 -0.000140462854607 0)
(0.359574404634 -2.12204326079e-05 0)
(0.359379174178 -4.100828576e-05 0)
(0.359544091957 -2.49335041607e-06 0)
(0.359495959626 -6.36488584978e-06 0)
(0.359527257193 1.04128780032e-06 0)
(0.359514404514 -7.30612759491e-07 0)
(0.359520383834 4.66482103574e-07 0)
(0.359517276814 -1.00410469581e-07 0)
(0.35951853805 1.10870059498e-07 0)
(0.359517853522 -2.60075161732e-08 0)
(0.359518141355 2.08146462636e-08 0)
(0.359517996312 -7.74202967899e-09 0)
(0.359518062795 3.78305729769e-09 0)
(0.359518031801 -1.98090698614e-09 0)
(0.359518046803 7.72813246752e-10 0)
(0.359518040007 -4.43048401495e-10 0)
(0.359518043315 1.76537294299e-10 0)
(0.359518041799 -9.25356160312e-11 0)
(0.359518042522 4.20080513292e-11 0)
(0.359518042184 -1.97598646544e-11 0)
(0.359518042343 9.7908432737e-12 0)
(0.359518042268 -5.02914487764e-12 0)
(0.359518042303 1.76973416361e-12 0)
(0.359518042286 -7.09059118105e-13 0)
(0.359518042294 7.58764019968e-13 0)
(0.35951804229 -1.62687738067e-13 0)
(0.359518042292 -3.81987333205e-13 0)
(0.359518042291 -3.23479668559e-13 0)
(0.359518042291 -9.97957296348e-15 0)
(0.359518042291 1.86835685414e-13 0)
(0.359518042291 -3.55537315087e-14 0)
(0.359518042291 -3.64398080195e-14 0)
(0.359518042291 -6.59049146202e-14 0)
(0.359518042292 6.07824124504e-14 0)
(0.459578277082 0.156228374316 0)
(0.498235702671 0.0480338632453 0)
(0.421225243166 0.0173288349564 0)
(0.42563143483 0.00533678182991 0)
(0.414619801082 0.000854591208524 0)
(0.417204950545 0.000209349142003 0)
(0.415829958687 -0.000165497696211 0)
(0.416636541539 -4.39572573546e-05 0)
(0.416417041934 -5.38112913212e-05 0)
(0.416597128616 -7.21729278541e-06 0)
(0.416544263887 -8.13025698001e-06 0)
(0.416578855551 7.36516601859e-07 0)
(0.416564838052 -7.87410756665e-07 0)
(0.416571468983 5.24435107059e-07 0)
(0.416568071006 -7.75041036175e-08 0)
(0.416569464159 1.30071244477e-07 0)
(0.41656871205 -2.19093824468e-08 0)
(0.416569028554 2.35037012614e-08 0)
(0.416568868721 -7.77398306006e-09 0)
(0.416568941717 3.96669737792e-09 0)
(0.41656890755 -2.13349118458e-09 0)
(0.416568924033 7.74684824993e-10 0)
(0.416568916549 -4.81559999151e-10 0)
(0.416568920189 1.79391196786e-10 0)
(0.416568918521 -9.91764174336e-11 0)
(0.416568919317 4.38228265122e-11 0)
(0.416568918945 -2.05658498462e-11 0)
(0.416568919121 1.01743588374e-11 0)
(0.416568919038 -4.87176577859e-12 0)
(0.416568919076 1.82173907451e-12 0)
(0.416568919057 -9.34384348587e-13 0)
(0.416568919066 7.24374640256e-13 0)
(0.416568919062 -1.34443804713e-13 0)
(0.416568919064 -2.28778967581e-13 0)
(0.416568919063 -4.05791885992e-13 0)
(0.416568919063 1.48495204577e-16 0)
(0.416568919064 -2.03554489084e-13 0)
(0.416568919064 1.03480136182e-13 0)
(0.416568919063 1.85606356101e-13 0)
(0.416568919063 -2.38327237934e-13 0)
(0.416568919064 -9.97830252992e-14 0)
(0.483609229364 0.153915843501 0)
(0.535110871565 0.055179814962 0)
(0.465114573738 0.0222120850909 0)
(0.470660289392 0.00682719602038 0)
(0.459370490272 0.0013272200957 0)
(0.462035273646 0.000260008127643 0)
(0.460541605265 -0.000181945242611 0)
(0.461372916716 -6.73579913191e-05 0)
(0.461131519301 -6.58317881488e-05 0)
(0.461320002572 -1.24817048171e-05 0)
(0.461263266234 -9.82829029842e-06 0)
(0.4613000341 2.99235645763e-07 0)
(0.461285213883 -8.23542452651e-07 0)
(0.461292323003 5.59097450082e-07 0)
(0.461288736053 -4.68618100698e-08 0)
(0.461290228029 1.4543757975e-07 0)
(0.46128943096 -1.56748779547e-08 0)
(0.461289768193 2.54460679562e-08 0)
(0.461289598103 -7.3272744783e-09 0)
(0.461289675635 3.97515034316e-09 0)
(0.461289639214 -2.18839974513e-09 0)
(0.461289656715 7.33651166888e-10 0)
(0.461289648742 -5.00365490655e-10 0)
(0.461289652611 1.7203089833e-10 0)
(0.461289650836 -1.01188544523e-10 0)
(0.461289651684 4.30380821391e-11 0)
(0.461289651288 -2.03345255553e-11 0)
(0.461289651475 9.89576646066e-12 0)
(0.461289651387 -4.94637885396e-12 0)
(0.461289651427 1.70168230012e-12 0)
(0.461289651407 -8.91672578302e-13 0)
(0.461289651416 2.89829129175e-13 0)
(0.461289651412 -7.45148168001e-14 0)
(0.461289651414 6.61607624415e-14 0)
(0.461289651413 -1.02275970689e-13 0)
(0.461289651414 -2.53059482077e-14 0)
(0.461289651414 -2.34280718302e-13 0)
(0.461289651414 2.32437551922e-14 0)
(0.461289651413 2.22707033916e-13 0)
(0.461289651414 -1.27956328378e-13 0)
(0.461289651414 -1.4289055573e-13 0)
(0.497510417773 0.147070537111 0)
(0.559694652982 0.0600015042271 0)
(0.498496403873 0.0262399918316 0)
(0.505587453108 0.00817504226678 0)
(0.494451712672 0.00179687150926 0)
(0.497189205464 0.000315931264263 0)
(0.495607663434 -0.000190793120829 0)
(0.496444228473 -8.92715841826e-05 0)
(0.496181518414 -7.66333849566e-05 0)
(0.496373478374 -1.77782417238e-05 0)
(0.49631314562 -1.14171093828e-05 0)
(0.496351284789 -2.04326158196e-07 0)
(0.496335864552 -8.51852076789e-07 0)
(0.496343338655 5.76283081696e-07 0)
(0.496339628404 -1.39989161661e-08 0)
(0.496341199784 1.57674768964e-07 0)
(0.496340372813 -8.5161628777e-09 0)
(0.496340726107 2.68836611211e-08 0)
(0.496340548729 -6.610467306e-09 0)
(0.49634062958 3.88930852241e-09 0)
(0.496340591484 -2.18135430981e-09 0)
(0.496340609711 6.70594247597e-10 0)
(0.496340601371 -5.06730202835e-10 0)
(0.496340605404 1.58932620258e-10 0)
(0.49634060355 -1.00918525902e-10 0)
(0.496340604434 4.1440096344e-11 0)
(0.496340604021 -1.97955311032e-11 0)
(0.496340604216 9.70397742972e-12 0)
(0.496340604124 -4.70313658205e-12 0)
(0.496340604167 1.83554276839e-12 0)
(0.496340604146 -5.11903003839e-13 0)
(0.496340604155 1.42054660918e-13 0)
(0.496340604151 1.01962267349e-13 0)
(0.496340604153 2.7702098997e-13 0)
(0.496340604152 7.40863030637e-14 0)
(0.496340604152 -4.23007114014e-14 0)
(0.496340604153 -5.23325257533e-13 0)
(0.496340604153 1.53416330995e-13 0)
(0.496340604152 1.00142740401e-13 0)
(0.496340604152 3.21331304048e-13 0)
(0.496340604153 -1.87149393078e-13 0)
(0.504792969648 0.137450954107 0)
(0.575495186765 0.0626693596553 0)
(0.523651238367 0.0292679272727 0)
(0.532589119318 0.00930465833055 0)
(0.521926940565 0.00222779108046 0)
(0.524750303207 0.000372939978146 0)
(0.523105927476 -0.000192949818439 0)
(0.52393520551 -0.000108298877025 0)
(0.523651028257 -8.57605421801e-05 0)
(0.523842851273 -2.27220799748e-05 0)
(0.523778896796 -1.28276148342e-05 0)
(0.523817810052 -7.24717017732e-07 0)
(0.523801897625 -8.75734010445e-07 0)
(0.52380965967 5.79056155349e-07 0)
(0.523805868758 1.77777519924e-08 0)
(0.523807508024 1.66831564644e-07 0)
(0.523806661394 -1.21014553449e-09 0)
(0.523807028012 2.78851219718e-08 0)
(0.523806845342 -5.74915155999e-09 0)
(0.523806928757 3.74770701309e-09 0)
(0.523806889362 -2.13011488967e-09 0)
(0.523806908126 5.9741812861e-10 0)
(0.523806899496 -5.03318514269e-10 0)
(0.52380690365 1.42974949491e-10 0)
(0.523806901734 -9.87648484449e-11 0)
(0.523806902647 3.88059343707e-11 0)
(0.52380690222 -1.86148407658e-11 0)
(0.523806902421 9.37556661351e-12 0)
(0.523806902327 -4.03318093132e-12 0)
(0.523806902371 1.71558881083e-12 0)
(0.523806902349 -1.4459200181e-13 0)
(0.523806902359 1.33270839406e-13 0)
(0.523806902355 1.16657068874e-15 0)
(0.523806902357 5.50505168735e-13 0)
(0.523806902356 1.30544530046e-13 0)
(0.523806902356 -8.63831915141e-15 0)
(0.523806902356 -4.70639075185e-13 0)
(0.523806902357 5.52639743961e-14 0)
(0.523806902356 1.69223929869e-13 0)
(0.523806902356 3.67694119781e-13 0)
(0.523806902356 -4.48482877681e-14 0)
(0.507830239407 0.126290686725 0)
(0.58509843205 0.0634203265977 0)
(0.542416370048 0.0312501462598 0)
(0.553385431488 0.0101630503061 0)
(0.543421215612 0.00259247420613 0)
(0.546351311234 0.000426286789918 0)
(0.544664814157 -0.000189436484514 0)
(0.54547898307 -0.000123524109047 0)
(0.545173036727 -9.28309518239e-05 0)
(0.545362071336 -2.7012158354e-05 0)
(0.545294345809 -1.39890413923e-05 0)
(0.545333581422 -1.22150971136e-06 0)
(0.54531723009 -8.94622103227e-07 0)
(0.545325224888 5.69655970604e-07 0)
(0.545321381264 4.62906831882e-08 0)
(0.545323081302 1.72782972643e-07 0)
(0.545322222131 5.68233374542e-09 0)
(0.545322600445 2.84582336884e-08 0)
(0.545322413867 -4.8308563147e-09 0)
(0.545322499369 3.57154632737e-09 0)
(0.545322458928 -2.04703232981e-09 0)
(0.545322478103 5.20883119872e-10 0)
(0.545322469233 -4.92839642797e-10 0)
(0.54532247348 1.26364763969e-10 0)
(0.545322471514 -9.51343805456e-11 0)
(0.545322472448 3.56891153657e-11 0)
(0.545322472012 -1.72333238644e-11 0)
(0.545322472218 8.85424323932e-12 0)
(0.545322472121 -3.8033121828e-12 0)
(0.545322472166 1.65189140228e-12 0)
(0.545322472144 -1.60237164794e-13 0)
(0.545322472154 1.68828529961e-13 0)
(0.545322472149 8.05240670589e-16 0)
(0.545322472152 6.01218743083e-13 0)
(0.545322472151 1.56242901465e-13 0)
(0.545322472151 -5.02600904285e-14 0)
(0.545322472151 -5.5794680533e-13 0)
(0.545322472152 3.39233141373e-14 0)
(0.545322472151 -9.79528972778e-14 0)
(0.545322472151 5.565311223e-13 0)
(0.545322472151 -1.06610677563e-13 0)
(0.508222044543 0.114412202761 0)
(0.590400233092 0.0625170789788 0)
(0.55625868932 0.0322084267069 0)
(0.569334973542 0.0107187784457 0)
(0.560213582455 0.00287128427525 0)
(0.563271565711 0.000471465843043 0)
(0.561560023016 -0.000181335050703 0)
(0.562354508756 -0.000134402501598 0)
(0.562026661116 -9.75596254371e-05 0)
(0.562210998655 -3.04212036461e-05 0)
(0.562139335499 -1.48384979941e-05 0)
(0.562178550119 -1.66194032312e-06 0)
(0.562161784182 -9.0600147249e-07 0)
(0.562169970045 5.49948267481e-07 0)
(0.56216609222 7.01416041104e-08 0)
(0.562167848192 1.75373239483e-07 0)
(0.562166981516 1.17550479083e-08 0)
(0.5621673705 2.85836633395e-08 0)
(0.562167181008 -3.91964549111e-09 0)
(0.562167268283 3.37130676197e-09 0)
(0.562167226973 -1.93955754469e-09 0)
(0.562167246474 4.45500836671e-10 0)
(0.562167237399 -4.76346222317e-10 0)
(0.562167241719 1.09672131199e-10 0)
(0.56216723971 -9.06569246211e-11 0)
(0.562167240663 3.25742449592e-11 0)
(0.562167240217 -1.56435968841e-11 0)
(0.562167240427 8.52461868835e-12 0)
(0.562167240329 -3.55718475998e-12 0)
(0.562167240375 1.54287804456e-12 0)
(0.562167240352 -2.07640150037e-13 0)
(0.562167240362 4.26424476446e-13 0)
(0.562167240358 8.22780588243e-14 0)
(0.56216724036 5.34811625193e-13 0)
(0.562167240359 2.05841885591e-13 0)
(0.562167240359 -1.69717908878e-13 0)
(0.562167240359 -3.7513969114e-13 0)
(0.56216724036 -5.93941715724e-14 0)
(0.562167240359 3.63436763416e-14 0)
(0.562167240359 5.07380037412e-13 0)
(0.562167240359 9.14520894983e-14 0)
(0.507042508577 0.102346112 0)
(0.592783715362 0.0602176657738 0)
(0.566340322524 0.0322065122949 0)
(0.581509247832 0.0109585043859 0)
(0.573309942312 0.00305171345275 0)
(0.576513097821 0.000504649959095 0)
(0.574790312878 -0.000169694352265 0)
(0.575562804455 -0.000140675148318 0)
(0.575213250182 -9.97590901489e-05 0)
(0.575391580434 -3.27888883573e-05 0)
(0.575315858955 -1.53252114205e-05 0)
(0.5753547952 -2.02060367885e-06 0)
(0.575337626006 -9.06528900035e-07 0)
(0.575345969897 5.21532476959e-07 0)
(0.575342070228 8.85176590581e-08 0)
(0.575343878339 1.74470458718e-07 0)
(0.575343007755 1.67282609538e-08 0)
(0.575343406676 2.82336426826e-08 0)
(0.575343215004 -3.06173335308e-09 0)
(0.575343303832 3.15215760693e-09 0)
(0.575343261785 -1.81245456262e-09 0)
(0.575343281552 3.74937504596e-10 0)
(0.575343272297 -4.54607216545e-10 0)
(0.575343276676 9.3584407983e-11 0)
(0.57534327463 -8.53802819606e-11 0)
(0.575343275597 2.95124076479e-11 0)
(0.575343275144 -1.44968534205e-11 0)
(0.575343275357 8.02654131646e-12 0)
(0.575343275257 -3.40582290187e-12 0)
(0.575343275305 1.23699179285e-12 0)
(0.575343275282 -5.46990592166e-13 0)
(0.575343275292 5.57940499134e-13 0)
(0.575343275287 1.67765531582e-13 0)
(0.57534327529 7.97104366612e-13 0)
(0.575343275288 3.65099251641e-13 0)
(0.575343275289 7.10593461561e-14 0)
(0.575343275289 -1.91058475525e-13 0)
(0.575343275289 -3.96482243175e-13 0)
(0.575343275289 4.64898386827e-14 0)
(0.575343275289 9.27216333846e-14 0)
(0.575343275289 2.90194987932e-13 0)
(0.505008100221 0.0904223724254 0)
(0.59325242686 0.0567595953177 0)
(0.573575728022 0.0313313760581 0)
(0.590751731365 0.010883341255 0)
(0.583500460571 0.00312742916787 0)
(0.586860117729 0.00052293439224 0)
(0.585136864818 -0.00015546772953 0)
(0.585886648214 -0.000142299579256 0)
(0.585515974436 -9.93358230089e-05 0)
(0.585687486397 -3.40149841011e-05 0)
(0.585607667456 -1.54131578121e-05 0)
(0.585646139873 -2.27907174228e-06 0)
(0.585628575757 -8.92867277843e-07 0)
(0.585637050486 4.85812096095e-07 0)
(0.585633137272 1.01035478596e-07 0)
(0.585634994035 1.70002830475e-07 0)
(0.58563412211 2.04231152488e-08 0)
(0.585634530343 2.73831928928e-08 0)
(0.585634337044 -2.28917610755e-09 0)
(0.58563442726 2.91497839749e-09 0)
(0.58563438458 -1.66946313869e-09 0)
(0.585634404567 3.10413201499e-10 0)
(0.585634395152 -4.26931130838e-10 0)
(0.585634399579 7.81798113727e-11 0)
(0.585634397501 -7.9292011389e-11 0)
(0.58563439848 2.60126022571e-11 0)
(0.585634398021 -1.32580029768e-11 0)
(0.585634398237 7.34823980823e-12 0)
(0.585634398136 -2.84819265296e-12 0)
(0.585634398184 1.12945521347e-12 0)
(0.585634398161 -6.54592834319e-13 0)
(0.585634398171 1.6540625322e-13 0)
(0.585634398166 2.19615938788e-13 0)
(0.585634398169 4.74086937604e-13 0)
(0.585634398167 1.43615483378e-13 0)
(0.585634398168 2.82528192732e-13 0)
(0.585634398168 1.83368245081e-13 0)
(0.585634398168 -3.21902033754e-13 0)
(0.585634398168 -1.93722397967e-13 0)
(0.585634398168 -2.1129563289e-14 0)
(0.585634398168 1.28852313809e-13 0)
(0.502592179627 0.0788323251784 0)
(0.592529973086 0.0523534634043 0)
(0.578679941753 0.0296809246779 0)
(0.597724723861 0.0105055987274 0)
(0.591404746549 0.00309730568329 0)
(0.594925497701 0.000524434844471 0)
(0.593209740008 -0.000139478102507 0)
(0.593937243865 -0.000139398501187 0)
(0.593546443779 -9.62851474679e-05 0)
(0.593710753353 -3.40534631599e-05 0)
(0.59362689742 -1.50824715449e-05 0)
(0.593664783071 -2.42552906949e-06 0)
(0.593646835354 -8.62244264367e-07 0)
(0.593655417955 4.44039744741e-07 0)
(0.593651496768 1.07629928288e-07 0)
(0.593653398601 1.6198250966e-07 0)
(0.593652527124 2.27431886202e-08 0)
(0.593652944042 2.60191092372e-08 0)
(0.593652749544 -1.62223587656e-09 0)
(0.593652841006 2.65926937209e-09 0)
(0.59365279778 -1.51311566521e-09 0)
(0.593652817953 2.53445885168e-10 0)
(0.593652808396 -3.9424436348e-10 0)
(0.593652812862 6.45064380459e-11 0)
(0.593652810754 -7.27621288447e-11 0)
(0.593652811744 2.28890700662e-11 0)
(0.593652811279 -1.19552325332e-11 0)
(0.593652811498 6.93627071305e-12 0)
(0.593652811395 -2.29792035909e-12 0)
(0.593652811444 1.27218921194e-12 0)
(0.593652811421 -7.36276026192e-13 0)
(0.593652811431 -6.02467040934e-14 0)
(0.593652811426 2.62311779281e-13 0)
(0.593652811429 2.88340431463e-13 0)
(0.593652811427 -6.86355493136e-14 0)
(0.593652811428 4.82313516602e-14 0)
(0.593652811428 5.00557628893e-13 0)
(0.593652811428 -3.67011282109e-13 0)
(0.593652811428 -4.36511584971e-13 0)
(0.593652811428 -7.52466920698e-15 0)
(0.593652811428 1.18895342246e-13 0)
(0.500103458253 0.0676714543243 0)
(0.591134448078 0.0471816229123 0)
(0.582208505608 0.0273562746384 0)
(0.602946451454 0.00984601064765 0)
(0.597507346467 0.00296451868026 0)
(0.601187060141 0.000508283951662 0)
(0.599484182339 -0.000122400735652 0)
(0.600190664804 -0.000132222786542 0)
(0.59978112222 -9.06845035225e-05 0)
(0.599938215537 -3.29073787789e-05 0)
(0.599850489222 -1.43297909449e-05 0)
(0.599887720646 -2.45443125257e-06 0)
(0.599869407046 -8.12780439121e-07 0)
(0.599878077818 3.97333604142e-07 0)
(0.599874152369 1.08478897504e-07 0)
(0.599876095371 1.505123289e-07 0)
(0.599875225526 2.36652630808e-08 0)
(0.59987565044 2.41414416337e-08 0)
(0.599875455072 -1.07214516648e-09 0)
(0.599875547648 2.3839984463e-09 0)
(0.599875503954 -1.34544178847e-09 0)
(0.599875524283 2.03359121357e-10 0)
(0.5998755146 -3.5697284349e-10 0)
(0.599875519099 5.21843906239e-11 0)
(0.599875516965 -6.53494961249e-11 0)
(0.599875517964 1.99267879999e-11 0)
(0.599875517494 -1.05873106115e-11 0)
(0.599875517715 6.18814135856e-12 0)
(0.599875517611 -2.05060415794e-12 0)
(0.599875517661 1.42098608398e-12 0)
(0.599875517637 -4.27601373181e-13 0)
(0.599875517648 2.70649794994e-13 0)
(0.599875517643 2.80115518156e-13 0)
(0.599875517645 3.51176649437e-14 0)
(0.599875517644 1.0452128363e-13 0)
(0.599875517644 9.30492791645e-14 0)
(0.599875517644 5.62266807997e-13 0)
(0.599875517645 -2.07676966538e-13 0)
(0.599875517645 -5.0942844244e-13 0)
(0.599875517644 2.08790301252e-14 0)
(0.599875517645 2.33740861525e-13 0)
(0.497739842019 0.056969572826 0)
(0.589433814992 0.0413995265268 0)
(0.584589977451 0.0244570865973 0)
(0.606820372842 0.00893146055492 0)
(0.602185552606 0.00273572997652 0)
(0.606015849293 0.000474565738115 0)
(0.604328916051 -0.000104759134768 0)
(0.605016245693 -0.00012112401617 0)
(0.604589703604 -8.26856254032e-05 0)
(0.604739888943 -3.06240194746e-05 0)
(0.604648563843 -1.31678146126e-05 0)
(0.604685123064 -2.36612261112e-06 0)
(0.604666469381 -7.43652183834e-07 0)
(0.604675211286 3.46680328881e-07 0)
(0.604671283986 1.03950606986e-07 0)
(0.60467326384 1.35788737029e-07 0)
(0.604672396321 2.32261422831e-08 0)
(0.604672828451 2.17670526356e-08 0)
(0.604672632467 -6.42088783112e-10 0)
(0.604672726025 2.08938317199e-09 0)
(0.604672681934 -1.16903754641e-09 0)
(0.604672702393 1.60406483785e-10 0)
(0.6046726926 -3.15459709829e-10 0)
(0.604672697126 4.14668412297e-11 0)
(0.604672694969 -5.75642727293e-11 0)
(0.604672695975 1.68717356868e-11 0)
(0.604672695501 -9.59926402806e-12 0)
(0.604672695725 5.41507643529e-12 0)
(0.60467269562 -1.6476777043e-12 0)
(0.60467269567 1.38595256519e-12 0)
(0.604672695646 -4.88705117214e-13 0)
(0.604672695657 6.58061733146e-13 0)
(0.604672695652 2.386818879e-13 0)
(0.604672695654 -1.13888030722e-13 0)
(0.604672695653 1.75714194381e-13 0)
(0.604672695653 -1.1522224526e-13 0)
(0.604672695653 5.11422073096e-13 0)
(0.604672695654 -2.47989718691e-13 0)
(0.604672695654 -5.53163896033e-13 0)
(0.604672695653 7.60986083216e-14 0)
(0.604672695653 4.58979382168e-13 0)
(0.495625386617 0.0467120974024 0)
(0.587686898336 0.0351384903527 0)
(0.586152013684 0.0210789962813 0)
(0.609658219649 0.00779318796862 0)
(0.605731099086 0.00242037400334 0)
(0.60969807635 0.000424215285474 0)
(0.608028114989 -8.69310023964e-05 0)
(0.608698614302 -0.000106533447802 0)
(0.608257134776 -7.25061260572e-05 0)
(0.608400998803 -2.72900494756e-05 0)
(0.608306445052 -1.16242908579e-05 0)
(0.608342357873 -2.16637321035e-06 0)
(0.6083233985 -6.55141074555e-07 0)
(0.608332196739 2.92937731303e-07 0)
(0.608328269074 9.45628904403e-08 0)
(0.608330281021 1.18095561881e-07 0)
(0.608329416121 2.15176910474e-08 0)
(0.608329854581 1.89299099465e-08 0)
(0.608329658173 -3.28157069892e-10 0)
(0.60832975258 1.7757825979e-09 0)
(0.608329708157 -9.84713702759e-10 0)
(0.608329728724 1.2350291515e-10 0)
(0.608329718837 -2.69243390428e-10 0)
(0.608329723384 3.20817648808e-11 0)
(0.608329721208 -4.91746354614e-11 0)
(0.60832972222 1.34021447202e-11 0)
(0.608329721743 -8.021080188e-12 0)
(0.608329721968 4.45483288032e-12 0)
(0.608329721863 -1.4054290002e-12 0)
(0.608329721913 1.35742773058e-12 0)
(0.608329721889 -3.413359316e-13 0)
(0.6083297219 3.75322703237e-13 0)
(0.608329721895 3.50250316525e-14 0)
(0.608329721897 2.32780085969e-13 0)
(0.608329721896 2.17853801524e-13 0)
(0.608329721896 2.75814132872e-13 0)
(0.608329721896 4.98971649131e-13 0)
(0.608329721897 -5.4140497231e-13 0)
(0.608329721896 -7.24383092912e-14 0)
(0.608329721896 1.27498053868e-13 0)
(0.608329721896 3.64760549022e-13 0)
(0.493835629524 0.0368548705978 0)
(0.586073531269 0.0285091275633 0)
(0.587141980986 0.0173124905715 0)
(0.611697971611 0.0064654238495 0)
(0.60836696968 0.00203004722951 0)
(0.612452044549 0.000358900732229 0)
(0.61079834537 -6.91613710582e-05 0)
(0.611454675784 -8.89454003363e-05 0)
(0.611000595094 -6.04207244999e-05 0)
(0.611138960857 -2.3026491607e-05 0)
(0.61104163694 -9.74057331262e-06 0)
(0.611076967107 -1.86581859734e-06 0)
(0.611057744726 -5.48598608263e-07 0)
(0.611066586396 2.3684093075e-07 0)
(0.611062659186 8.09548019395e-08 0)
(0.611064698039 9.77965979447e-08 0)
(0.611063835724 1.86783016116e-08 0)
(0.611064279525 1.56802790145e-08 0)
(0.611064082837 -1.21106376016e-10 0)
(0.611064177951 1.44431005926e-09 0)
(0.611064133259 -7.9476052716e-10 0)
(0.611064153913 9.17807653477e-11 0)
(0.611064143948 -2.20025497946e-10 0)
(0.611064148512 2.39936551168e-11 0)
(0.611064146321 -4.00102348206e-11 0)
(0.611064147338 1.05439804366e-11 0)
(0.611064146857 -6.56103134613e-12 0)
(0.611064147084 3.63799348258e-12 0)
(0.611064146978 -1.21032498196e-12 0)
(0.611064147028 9.49280255039e-13 0)
(0.611064147004 -2.12359368678e-13 0)
(0.611064147015 2.55015586503e-13 0)
(0.61106414701 -3.11032179772e-14 0)
(0.611064147013 2.92221772888e-13 0)
(0.611064147011 2.95529960025e-13 0)
(0.611064147012 5.75480276066e-13 0)
(0.611064147012 5.15205735772e-13 0)
(0.611064147012 -6.15107618476e-13 0)
(0.611064147012 3.09531364931e-13 0)
(0.611064147012 1.95070461135e-13 0)
(0.611064147012 4.04649136663e-13 0)
(0.492414885126 0.0273343872617 0)
(0.584716517881 0.0216050135529 0)
(0.587742956031 0.013242762752 0)
(0.613117704721 0.00498438613117 0)
(0.610260267665 0.00157799328051 0)
(0.61444105878 0.000280898079595 0)
(0.612801486167 -5.15804853534e-05 0)
(0.613446560414 -6.89036410983e-05 0)
(0.612982441495 -4.67521964089e-05 0)
(0.613116326722 -1.79834965822e-05 0)
(0.613016766569 -7.56983358782e-06 0)
(0.613051609616 -1.47931407802e-06 0)
(0.613032174322 -4.26352267704e-07 0)
(0.613041048093 1.79011011729e-07 0)
(0.613037121676 6.38607296401e-08 0)
(0.613039181876 7.53247502678e-08 0)
(0.613038321845 1.48855490079e-08 0)
(0.613038769906 1.20821164608e-08 0)
(0.613038573041 -5.47434803316e-12 0)
(0.613038668714 1.09787753065e-09 0)
(0.613038623815 -6.00048664809e-10 0)
(0.613038644534 6.43221463639e-11 0)
(0.613038634509 -1.67681527159e-10 0)
(0.613038639086 1.70858679198e-11 0)
(0.613038636882 -3.0341422327e-11 0)
(0.613038637903 8.15557999845e-12 0)
(0.61303863742 -4.94488073447e-12 0)
(0.613038637647 2.83881694312e-12 0)
(0.613038637541 -8.36678174536e-13 0)
(0.613038637592 5.05085839689e-13 0)
(0.613038637568 1.17479780577e-13 0)
(0.613038637579 3.14321849741e-13 0)
(0.613038637574 -1.20207645244e-13 0)
(0.613038637576 2.27162744949e-13 0)
(0.613038637575 5.87615885702e-13 0)
(0.613038637575 5.39634847554e-13 0)
(0.613038637575 4.83125890123e-13 0)
(0.613038637575 -3.85409774418e-13 0)
(0.613038637576 4.29834937062e-13 0)
(0.613038637575 2.29700740816e-13 0)
(0.613038637575 3.97596915846e-14 0)
(0.491387938733 0.018074804689 0)
(0.583697376775 0.0145063528377 0)
(0.588085842136 0.00895021673443 0)
(0.614046038551 0.00338756322358 0)
(0.611531875899 0.00107867112987 0)
(0.615783084095 0.000192964853275 0)
(0.614154392882 -3.42246436715e-05 0)
(0.614791305176 -4.69897680482e-05 0)
(0.614319888513 -3.18620868933e-05 0)
(0.614450463471 -1.23348748331e-05 0)
(0.614349261569 -5.17501130559e-06 0)
(0.614383738272 -1.0251972442e-06 0)
(0.614364146295 -2.91557796258e-07 0)
(0.614373042084 1.1997279792e-07 0)
(0.614369116458 4.40886760613e-08 0)
(0.614371192135 5.11718455981e-08 0)
(0.614370333883 1.03495698728e-08 0)
(0.614370785044 8.21153886219e-09 0)
(0.614370588075 3.78877480666e-11 0)
(0.614370684152 7.38793350908e-10 0)
(0.614370639105 -4.02011203924e-10 0)
(0.614370659872 4.10138478189e-11 0)
(0.614370649803 -1.12764381475e-10 0)
(0.614370654389 1.07161757804e-11 0)
(0.614370652176 -2.02789581436e-11 0)
(0.614370653199 5.82758005974e-12 0)
(0.614370652715 -3.16285757711e-12 0)
(0.614370652943 1.8487642566e-12 0)
(0.614370652837 -5.55677183479e-13 0)
(0.614370652888 2.54086087851e-13 0)
(0.614370652863 3.52927811958e-13 0)
(0.614370652874 5.11607030061e-13 0)
(0.614370652869 -3.88607119527e-13 0)
(0.614370652872 1.59556286603e-13 0)
(0.61437065287 7.90391311656e-13 0)
(0.614370652871 8.0217869131e-13 0)
(0.61437065287 2.23337868191e-13 0)
(0.614370652871 -1.30461441756e-13 0)
(0.614370652871 4.71983090122e-13 0)
(0.614370652871 2.37998604043e-13 0)
(0.614370652871 -3.90533169125e-13 0)
(0.490767781568 0.00899268040919 0)
(0.583067292833 0.0072834813542 0)
(0.588258191815 0.00451137593405 0)
(0.614569734122 0.00171321251298 0)
(0.612263454419 0.000547390763866 0)