/*--------------------------------*- C++ -*----------------------------------*\
| =========                 |                                                 |
| \\      /  F ield         | OpenFOAM: The Open Source CFD Toolbox           |
|  \\    /   O peration     | Version:  2112                                  |
|   \\  /    A nd           | Website:  www.openfoam.com                      |
|    \\/     M anipulation  |                                                 |
\*---------------------------------------------------------------------------*/
FoamFile
{
    version     2.0;
    format      ascii;
    arch        "LSB;label=32;scalar=64";
    class       volVectorField;
    location    "0.8";
    object      UxB;
}
// * * * * * * * * * * * * * * * * * * * * * * * * * * * * * * * * * * * * * //

dimensions      [1 1 -3 0 0 -1 0];

internalField   nonuniform List<vector> 
1681
(
(0 0 0.113095983779)
(0 0 0.105593732549)
(0 0 0.0753206980018)
(0 0 0.0773212183112)
(-0 0 0.0747911180228)
(0 0 0.0756236076645)
(-0 0 0.0753165685145)
(0 0 0.0755320396244)
(-0 0 0.0754759289708)
(0 0 0.0755201603522)
(-0 0 0.0755057850283)
(0 0 0.075514098436)
(-0 0 0.0755103863558)
(0 0 0.0755120175333)
(-0 0 0.0755111499928)
(0 0 0.0755115037404)
(-0 0 0.0755113156436)
(0 0 0.0755113969245)
(-0 0 0.0755113570496)
(0 0 0.0755113756949)
(-0 0 0.0755113671055)
(0 0 0.0755113712793)
(-0 0 0.075511369384)
(0 0 0.0755113703012)
(-0 0 0.0755113698779)
(0 0 0.0755113700786)
(-0 0 0.0755113699843)
(0 0 0.0755113700286)
(-0 0 0.0755113700077)
(0 0 0.0755113700172)
(-0 0 0.0755113700126)
(-0 0 0.0755113700147)
(-0 0 0.0755113700137)
(0 0 0.0755113700143)
(-0 0 0.075511370014)
(-0 0 0.075511370014)
(-0 0 0.0755113700141)
(0 0 0.0755113700142)
(0 0 0.075511370014)
(-0 0 0.075511370014)
(-0 0 0.0755113700141)
(0 0 0.261383905058)
(0 0 0.258090326676)
(0 0 0.195428689722)
(0 0 0.198566141502)
(-0 0 0.192444659694)
(0 0 0.194183760893)
(-0 0 0.193468050485)
(0 0 0.193953540562)
(-0 0 0.193830981298)
(0 0 0.193933118061)
(-0 0 0.193901870079)
(0 0 0.19392102214)
(-0 0 0.193912774811)
(0 0 0.1939164714)
(-0 0 0.193914512434)
(0 0 0.19391530438)
(-0 0 0.193914877233)
(0 0 0.193915059063)
(-0 0 0.193914968702)
(0 0 0.193915010604)
(-0 0 0.193914991227)
(0 0 0.193915000642)
(-0 0 0.193914996378)
(0 0 0.19391499845)
(-0 0 0.193914997497)
(0 0 0.19391499795)
(-0 0 0.193914997738)
(0 0 0.193914997838)
(-0 0 0.19391499779)
(0 0 0.193914997812)
(-0 0 0.193914997801)
(0 0 0.193914997806)
(0 0 0.193914997804)
(0 0 0.193914997805)
(-0 0 0.193914997805)
(0 0 0.193914997805)
(0 0 0.193914997805)
(-0 0 0.193914997805)
(-0 0 0.193914997805)
(-0 0 0.193914997805)
(-0 0 0.193914997805)
(0 0 0.357968268704)
(0 0 0.36712958493)
(0 0 0.290113504666)
(0 0 0.293525475331)
(0 0 0.284927588146)
(0 0 0.287143391691)
(-0 0 0.286138419171)
(-0 0 0.286791057498)
(-0 0 0.286626002689)
(0 0 0.28676627554)
(-0 0 0.286724769573)
(0 0 0.286751171951)
(-0 0 0.286740104823)
(0 0 0.28674515993)
(-0 0 0.286742502836)
(0 0 0.286743576171)
(-0 0 0.286742993735)
(0 0 0.286743239579)
(-0 0 0.286743116362)
(0 0 0.286743173132)
(-0 0 0.286743146775)
(0 0 0.286743159564)
(-0 0 0.286743153775)
(0 0 0.286743156593)
(-0 0 0.286743155301)
(0 0 0.286743155917)
(-0 0 0.286743155628)
(0 0 0.286743155763)
(-0 0 0.286743155699)
(0 0 0.286743155729)
(-0 0 0.286743155715)
(0 0 0.286743155721)
(-0 0 0.286743155718)
(-0 0 0.286743155719)
(-0 0 0.286743155719)
(0 0 0.286743155719)
(0 0 0.286743155719)
(-0 0 0.286743155719)
(-0 0 0.286743155719)
(-0 0 0.286743155719)
(-0 0 0.286743155719)
(0 0 0.420240368347)
(0 0 0.444346485219)
(0 0 0.36402623816)
(0 0 0.367747655823)
(0 0 0.357580303652)
(0 0 0.360039120163)
(-0 0 0.358822299931)
(-0 0 0.359574404749)
(-0 0 0.359379174127)
(-0 0 0.359544091927)
(-0 0 0.359495959657)
(0 0 0.359527257195)
(-0 0 0.3595144045)
(0 0 0.359520383837)
(-0 0 0.359517276819)
(0 0 0.359518538047)
(-0 0 0.359517853521)
(0 0 0.359518141356)
(-0 0 0.359517996312)
(0 0 0.359518062794)
(-0 0 0.359518031801)
(0 0 0.359518046803)
(-0 0 0.359518040006)
(0 0 0.359518043315)
(-0 0 0.359518041799)
(0 0 0.359518042523)
(-0 0 0.359518042184)
(0 0 0.359518042343)
(-0 0 0.359518042268)
(0 0 0.359518042303)
(-0 0 0.359518042286)
(0 0 0.359518042294)
(-0 0 0.35951804229)
(0 0 0.359518042292)
(-0 0 0.359518042291)
(0 0 0.359518042291)
(0 0 0.359518042291)
(-0 0 0.359518042292)
(-0 0 0.359518042291)
(-0 0 0.359518042291)
(-0 0 0.359518042291)
(0 0 0.459578279787)
(0 0 0.498235704025)
(0 0 0.421225241607)
(0 0 0.425631435201)
(0 0 0.414619801467)
(0 0 0.417204950243)
(-0 0 0.415829958647)
(-0 0 0.416636541669)
(-0 0 0.416417041905)
(-0 0 0.416597128573)
(-0 0 0.416544263913)
(0 0 0.41657885556)
(-0 0 0.416564838038)
(0 0 0.416571468984)
(-0 0 0.416568071012)
(0 0 0.416569464158)
(-0 0 0.416568712048)
(0 0 0.416569028555)
(-0 0 0.416568868721)
(0 0 0.416568941716)
(-0 0 0.41656890755)
(0 0 0.416568924033)
(-0 0 0.416568916549)
(0 0 0.416568920189)
(-0 0 0.416568918522)
(0 0 0.416568919318)
(-0 0 0.416568918946)
(0 0 0.416568919121)
(-0 0 0.416568919038)
(0 0 0.416568919076)
(-0 0 0.416568919058)
(0 0 0.416568919066)
(-0 0 0.416568919062)
(0 0 0.416568919064)
(-0 0 0.416568919063)
(0 0 0.416568919063)
(-0 0 0.416568919063)
(-0 0 0.416568919064)
(-0 0 0.416568919064)
(-0 0 0.416568919063)
(-0 0 0.416568919064)
(0 0 0.483609232393)
(0 0 0.535110873319)
(0 0 0.46511457205)
(0 0 0.470660289591)
(0 0 0.459370490767)
(0 0 0.462035273383)
(-0 0 0.460541605164)
(-0 0 0.461372916849)
(-0 0 0.461131519296)
(-0 0 0.461320002519)
(-0 0 0.461263266252)
(0 0 0.461300034117)
(-0 0 0.461285213871)
(0 0 0.461292323)
(-0 0 0.46128873606)
(0 0 0.461290228029)
(-0 0 0.461289430957)
(0 0 0.461289768194)
(-0 0 0.461289598104)
(0 0 0.461289675635)
(-0 0 0.461289639214)
(0 0 0.461289656716)
(-0 0 0.461289648742)
(0 0 0.461289652611)
(-0 0 0.461289650837)
(0 0 0.461289651684)
(-0 0 0.461289651288)
(0 0 0.461289651475)
(-0 0 0.461289651386)
(0 0 0.461289651427)
(-0 0 0.461289651407)
(0 0 0.461289651416)
(-0 0 0.461289651412)
(0 0 0.461289651414)
(0 0 0.461289651413)
(-0 0 0.461289651413)
(0 0 0.461289651414)
(-0 0 0.461289651414)
(-0 0 0.461289651414)
(-0 0 0.461289651414)
(0 0 0.461289651414)
(0 0 0.497510421017)
(0 0 0.559694655087)
(0 0 0.498496402139)
(0 0 0.505587453119)
(0 0 0.494451713245)
(0 0 0.497189205261)
(-0 0 0.49560766328)
(-0 0 0.496444228599)
(-0 0 0.496181518434)
(-0 0 0.496373478316)
(-0 0 0.496313145629)
(-0 0 0.49635128481)
(-0 0 0.496335864542)
(0 0 0.49634333865)
(-0 0 0.49633962841)
(0 0 0.496341199785)
(-0 0 0.49634037281)
(0 0 0.496340726107)
(-0 0 0.496340548729)
(0 0 0.496340629579)
(-0 0 0.496340591484)
(0 0 0.496340609711)
(-0 0 0.496340601371)
(0 0 0.496340605404)
(-0 0 0.49634060355)
(0 0 0.496340604435)
(-0 0 0.496340604021)
(0 0 0.496340604216)
(-0 0 0.496340604124)
(0 0 0.496340604167)
(-0 0 0.496340604146)
(0 0 0.496340604155)
(-0 0 0.496340604151)
(0 0 0.496340604153)
(0 0 0.496340604152)
(-0 0 0.496340604152)
(-0 0 0.496340604152)
(-0 0 0.496340604153)
(-0 0 0.496340604153)
(-0 0 0.496340604153)
(-0 0 0.496340604153)
(0 0 0.504792972968)
(0 0 0.575495189138)
(0 0 0.523651236679)
(0 0 0.532589119134)
(0 0 0.521926941178)
(0 0 0.524750303082)
(-0 0 0.52310592728)
(-0 0 0.523935205616)
(-0 0 0.523651028301)
(-0 0 0.523842851216)
(-0 0 0.523778896794)
(-0 0 0.523817810076)
(-0 0 0.523801897619)
(0 0 0.523809659662)
(0 0 0.523805868763)
(0 0 0.523807508026)
(-0 0 0.523806661391)
(0 0 0.523807028012)
(-0 0 0.523806845343)
(0 0 0.523806928756)
(-0 0 0.523806889362)
(0 0 0.523806908126)
(-0 0 0.523806899496)
(0 0 0.52380690365)
(-0 0 0.523806901734)
(0 0 0.523806902647)
(-0 0 0.523806902221)
(0 0 0.523806902421)
(-0 0 0.523806902327)
(0 0 0.523806902371)
(-0 0 0.52380690235)
(0 0 0.523806902359)
(-0 0 0.523806902354)
(0 0 0.523806902357)
(0 0 0.523806902356)
(0 0 0.523806902356)
(0 0 0.523806902356)
(-0 0 0.523806902356)
(-0 0 0.523806902356)
(-0 0 0.523806902356)
(0 0 0.523806902357)
(0 0 0.507830242651)
(0 0 0.585098434587)
(0 0 0.542416368497)
(0 0 0.55338543112)
(0 0 0.543421216222)
(0 0 0.546351311196)
(-0 0 0.544664813934)
(-0 0 0.545478983148)
(-0 0 0.545173036792)
(-0 0 0.545362071284)
(-0 0 0.545294345797)
(-0 0 0.545333581447)
(-0 0 0.545317230088)
(0 0 0.545325224878)
(0 0 0.545321381268)
(0 0 0.545323081305)
(0 0 0.545322222128)
(0 0 0.545322600444)
(-0 0 0.545322413868)
(0 0 0.545322499369)
(-0 0 0.545322458927)
(0 0 0.545322478103)
(-0 0 0.545322469233)
(0 0 0.54532247348)
(-0 0 0.545322471514)
(0 0 0.545322472449)
(-0 0 0.545322472012)
(0 0 0.545322472218)
(-0 0 0.545322472121)
(0 0 0.545322472166)
(-0 0 0.545322472144)
(0 0 0.545322472154)
(-0 0 0.545322472149)
(0 0 0.545322472152)
(0 0 0.545322472151)
(0 0 0.545322472151)
(-0 0 0.545322472151)
(0 0 0.545322472151)
(-0 0 0.545322472151)
(-0 0 0.545322472151)
(0 0 0.545322472151)
(0 0 0.508222047561)
(0 0 0.590400235671)
(0 0 0.556258687988)
(0 0 0.569334973014)
(0 0 0.560213583023)
(0 0 0.563271565763)
(-0 0 0.561560022782)
(-0 0 0.562354508798)
(-0 0 0.562026661197)
(-0 0 0.562210998614)
(-0 0 0.562139335476)
(-0 0 0.562178550143)
(-0 0 0.562161784186)
(0 0 0.562169970035)
(0 0 0.562166092222)
(0 0 0.562167848196)
(0 0 0.562166981514)
(0 0 0.562167370498)
(-0 0 0.562167181009)
(0 0 0.562167268283)
(-0 0 0.562167226972)
(0 0 0.562167246474)
(-0 0 0.562167237399)
(0 0 0.562167241719)
(-0 0 0.56216723971)
(0 0 0.562167240663)
(-0 0 0.562167240217)
(0 0 0.562167240427)
(-0 0 0.562167240328)
(0 0 0.562167240374)
(-0 0 0.562167240352)
(0 0 0.562167240362)
(0 0 0.562167240358)
(0 0 0.56216724036)
(0 0 0.562167240359)
(-0 0 0.562167240359)
(0 0 0.562167240359)
(0 0 0.56216724036)
(-0 0 0.562167240359)
(0 0 0.56216724036)
(0 0 0.56216724036)
(0 0 0.507042511234)
(0 0 0.592783717859)
(0 0 0.566340321473)
(0 0 0.581509247178)
(0 0 0.573309942802)
(0 0 0.576513097957)
(-0 0 0.574790312653)
(-0 0 0.575562804459)
(-0 0 0.575213250272)
(-0 0 0.575391580407)
(-0 0 0.575315858924)
(-0 0 0.57535479522)
(-0 0 0.575337626014)
(0 0 0.575345969887)
(0 0 0.575342070228)
(0 0 0.575343878343)
(0 0 0.575343007754)
(0 0 0.575343406674)
(-0 0 0.575343215004)
(0 0 0.575343303833)
(-0 0 0.575343261785)
(0 0 0.575343281552)
(-0 0 0.575343272297)
(0 0 0.575343276676)
(-0 0 0.57534327463)
(0 0 0.575343275597)
(-0 0 0.575343275144)
(0 0 0.575343275358)
(-0 0 0.575343275257)
(0 0 0.575343275304)
(-0 0 0.575343275282)
(0 0 0.575343275292)
(0 0 0.575343275287)
(0 0 0.575343275289)
(0 0 0.575343275288)
(0 0 0.575343275289)
(0 0 0.575343275289)
(-0 0 0.575343275289)
(-0 0 0.575343275289)
(-0 0 0.575343275289)
(0 0 0.575343275289)
(0 0 0.505008102404)
(0 0 0.593252429153)
(0 0 0.573575727296)
(0 0 0.590751730629)
(0 0 0.583500460955)
(0 0 0.586860117937)
(-0 0 0.585136864615)
(-0 0 0.58588664818)
(-0 0 0.585515974527)
(-0 0 0.585687486386)
(-0 0 0.58560766742)
(-0 0 0.585646139888)
(-0 0 0.585628575769)
(0 0 0.585637050478)
(0 0 0.58563313727)
(0 0 0.58563499404)
(0 0 0.58563412211)
(0 0 0.585634530341)
(-0 0 0.585634337044)
(0 0 0.58563442726)
(-0 0 0.58563438458)
(0 0 0.585634404567)
(-0 0 0.585634395153)
(0 0 0.58563439958)
(-0 0 0.585634397501)
(0 0 0.58563439848)
(-0 0 0.585634398021)
(0 0 0.585634398238)
(-0 0 0.585634398136)
(0 0 0.585634398183)
(-0 0 0.585634398161)
(-0 0 0.585634398171)
(0 0 0.585634398166)
(0 0 0.585634398168)
(0 0 0.585634398167)
(0 0 0.585634398168)
(0 0 0.585634398168)
(0 0 0.585634398168)
(-0 0 0.585634398168)
(-0 0 0.585634398168)
(-0 0 0.585634398168)
(0 0 0.502592181252)
(0 0 0.592529975069)
(0 0 0.578679941375)
(0 0 0.597724723091)
(0 0 0.591404746808)
(0 0 0.594925497963)
(-0 0 0.593209739842)
(-0 0 0.593937243797)
(-0 0 0.593546443864)
(-0 0 0.593710753359)
(-0 0 0.593626897382)
(-0 0 0.593664783079)
(-0 0 0.593646835368)
(0 0 0.593655417949)
(0 0 0.593651496764)
(0 0 0.593653398605)
(0 0 0.593652527125)
(0 0 0.59365294404)
(-0 0 0.593652749544)
(0 0 0.593652841006)
(-0 0 0.59365279778)
(0 0 0.593652817952)
(-0 0 0.593652808396)
(0 0 0.593652812862)
(-0 0 0.593652810754)
(0 0 0.593652811744)
(-0 0 0.593652811279)
(0 0 0.593652811498)
(-0 0 0.593652811395)
(0 0 0.593652811444)
(-0 0 0.593652811421)
(-0 0 0.593652811431)
(0 0 0.593652811426)
(0 0 0.593652811428)
(-0 0 0.593652811427)
(0 0 0.593652811428)
(0 0 0.593652811428)
(0 0 0.593652811428)
(-0 0 0.593652811428)
(-0 0 0.593652811428)
(0 0 0.593652811428)
(0 0 0.500103459269)
(0 0 0.591134449662)
(0 0 0.582208505577)
(0 0 0.602946450698)
(0 0 0.597507346592)
(0 0 0.601187060436)
(-0 0 0.599484182219)
(-0 0 0.600190664709)
(-0 0 0.599781122292)
(-0 0 0.599938215557)
(-0 0 0.599850489185)
(-0 0 0.599887720646)
(-0 0 0.599869407062)
(0 0 0.599878077814)
(0 0 0.599874152364)
(0 0 0.599876095374)
(0 0 0.599875225527)
(0 0 0.599875650439)
(-0 0 0.599875455072)
(0 0 0.599875547648)
(-0 0 0.599875503954)
(0 0 0.599875524282)
(-0 0 0.5998755146)
(0 0 0.599875519099)
(-0 0 0.599875516965)
(0 0 0.599875517964)
(-0 0 0.599875517494)
(0 0 0.599875517716)
(-0 0 0.599875517612)
(0 0 0.59987551766)
(-0 0 0.599875517637)
(0 0 0.599875517648)
(0 0 0.599875517643)
(0 0 0.599875517645)
(0 0 0.599875517644)
(0 0 0.599875517644)
(0 0 0.599875517644)
(0 0 0.599875517644)
(-0 0 0.599875517645)
(0 0 0.599875517645)
(0 0 0.599875517645)
(0 0 0.49773984241)
(0 0 0.589433816116)
(0 0 0.584589977747)
(0 0 0.606820372143)
(0 0 0.602185552597)
(0 0 0.606015849601)
(-0 0 0.604328915984)
(-0 0 0.605016245579)
(-0 0 0.60458970366)
(-0 0 0.604739888976)
(-0 0 0.60464856381)
(-0 0 0.604685123058)
(-0 0 0.604666469397)
(0 0 0.604675211285)
(0 0 0.60467128398)
(0 0 0.604673263842)
(0 0 0.604672396323)
(0 0 0.604672828449)
(-0 0 0.604672632466)
(0 0 0.604672726026)
(-0 0 0.604672681934)
(0 0 0.604672702392)
(-0 0 0.6046726926)
(0 0 0.604672697126)
(-0 0 0.604672694969)
(0 0 0.604672695975)
(-0 0 0.604672695501)
(0 0 0.604672695725)
(-0 0 0.60467269562)
(0 0 0.604672695669)
(-0 0 0.604672695646)
(0 0 0.604672695657)
(0 0 0.604672695652)
(0 0 0.604672695654)
(0 0 0.604672695653)
(0 0 0.604672695653)
(0 0 0.604672695653)
(0 0 0.604672695653)
(-0 0 0.604672695653)
(0 0 0.604672695654)
(0 0 0.604672695654)
(0 0 0.495625386403)
(0 0 0.587686898968)
(0 0 0.586152014269)
(0 0 0.609658219045)
(0 0 0.605731098953)
(0 0 0.609698076649)
(-0 0 0.608028114975)
(-0 0 0.608698614179)
(-0 0 0.608257134811)
(-0 0 0.608400998845)
(-0 0 0.608306445027)
(-0 0 0.608342357862)
(-0 0 0.608323398515)
(0 0 0.608332196742)
(0 0 0.608328269068)
(0 0 0.608330281021)
(0 0 0.608329416123)
(0 0 0.60832985458)
(-0 0 0.608329658172)
(0 0 0.60832975258)
(-0 0 0.608329708157)
(0 0 0.608329728723)
(-0 0 0.608329718836)
(0 0 0.608329723384)
(-0 0 0.608329721208)
(0 0 0.608329722221)
(-0 0 0.608329721743)
(0 0 0.608329721968)
(-0 0 0.608329721863)
(0 0 0.608329721912)
(-0 0 0.608329721889)
(0 0 0.6083297219)
(0 0 0.608329721895)
(0 0 0.608329721897)
(0 0 0.608329721896)
(0 0 0.608329721896)
(0 0 0.608329721896)
(0 0 0.608329721896)
(0 0 0.608329721896)
(0 0 0.608329721897)
(0 0 0.608329721896)
(0 0 0.493835628756)
(0 0 0.586073531404)
(0 0 0.587141981807)
(0 0 0.611697971132)
(0 0 0.608366969439)
(0 0 0.612452044821)
(-0 0 0.610798345405)
(-0 0 0.611454675662)
(-0 0 0.611000595107)
(-0 0 0.611138960905)
(-0 0 0.611041636923)
(-0 0 0.611076967091)
(-0 0 0.611057744738)
(0 0 0.611066586401)
(0 0 0.61106265918)
(0 0 0.611064698038)
(0 0 0.611063835726)
(0 0 0.611064279525)
(-0 0 0.611064082836)
(0 0 0.611064177951)
(-0 0 0.611064133259)
(0 0 0.611064153912)
(-0 0 0.611064143948)
(0 0 0.611064148513)
(-0 0 0.611064146321)
(0 0 0.611064147338)
(-0 0 0.611064146858)
(0 0 0.611064147084)
(-0 0 0.611064146978)
(0 0 0.611064147028)
(-0 0 0.611064147004)
(0 0 0.611064147015)
(0 0 0.61106414701)
(0 0 0.611064147012)
(0 0 0.611064147011)
(0 0 0.611064147012)
(0 0 0.611064147012)
(-0 0 0.611064147012)
(0 0 0.611064147012)
(0 0 0.611064147012)
(0 0 0.611064147012)
(0 0 0.492414883884)
(0 0 0.584716517544)
(0 0 0.587742957024)
(0 0 0.613117704387)
(0 0 0.610260267338)
(0 0 0.614441059008)
(-0 0 0.612801486247)
(-0 0 0.6134465603)
(-0 0 0.612982441488)
(-0 0 0.613116326771)
(-0 0 0.61301676656)
(-0 0 0.613051609597)
(-0 0 0.613032174331)
(0 0 0.6130410481)
(0 0 0.613037121671)
(0 0 0.613039181874)
(0 0 0.613038321848)
(0 0 0.613038769906)
(-0 0 0.61303857304)
(0 0 0.613038668714)
(-0 0 0.613038623815)
(0 0 0.613038644534)
(-0 0 0.613038634509)
(0 0 0.613038639086)
(-0 0 0.613038636882)
(0 0 0.613038637903)
(-0 0 0.61303863742)
(0 0 0.613038637648)
(-0 0 0.613038637541)
(0 0 0.613038637591)
(-0 0 0.613038637568)
(0 0 0.613038637579)
(0 0 0.613038637574)
(0 0 0.613038637576)
(0 0 0.613038637575)
(0 0 0.613038637575)
(0 0 0.613038637575)
(-0 0 0.613038637575)
(0 0 0.613038637575)
(0 0 0.613038637576)
(0 0 0.613038637575)
(0 0 0.491387937116)
(0 0 0.583697376016)
(0 0 0.588085843235)
(0 0 0.614046038369)
(0 0 0.611531875514)
(0 0 0.615783084269)
(-0 0 0.614154392997)
(-0 0 0.614791305078)
(-0 0 0.614319888487)
(-0 0 0.614450463517)
(-0 0 0.61434926157)
(-0 0 0.614383738252)
(-0 0 0.6143641463)
(0 0 0.614373042092)
(0 0 0.614369116455)
(0 0 0.614371192132)
(0 0 0.614370333885)
(0 0 0.614370785045)
(0 0 0.614370588074)
(0 0 0.614370684152)
(-0 0 0.614370639106)
(0 0 0.614370659872)
(-0 0 0.614370649803)
(0 0 0.614370654389)
(-0 0 0.614370652176)
(0 0 0.6143706532)
(-0 0 0.614370652715)
(0 0 0.614370652944)
(-0 0 0.614370652837)
(0 0 0.614370652887)
(-0 0 0.614370652863)
(0 0 0.614370652875)
(0 0 0.614370652869)
(0 0 0.614370652871)
(0 0 0.61437065287)
(0 0 0.614370652871)
(0 0 0.614370652871)
(0 0 0.614370652871)
(0 0 0.614370652871)
(0 0 0.614370652871)
(-0 0 0.614370652871)
(0 0 0.490767779691)
(0 0 0.583067291723)
(0 0 0.588258192951)
(0 0 0.614569734091)
(0 0 0.612263454002)
(0 0 0.61655772412)
(-0 0 0.614935877584)
(-0 0 0.615567844947)
(-0 0 0.61509199851)
(-0 0 0.615220543248)
(-0 0 0.615118338287)
(-0 0 0.615152587727)
(-0 0 0.615132899884)
(0 0 0.615141808521)
(0 0 0.615137883447)
(0 0 0.615139968502)
(0 0 0.615139111381)
(0 0 0.615139564425)
(0 0 0.6151393674)
(0 0 0.615139463723)
(-0 0 0.615139418589)
(0 0 0.615139439383)
(-0 0 0.615139429287)
(0 0 0.615139433879)
(-0 0 0.61513943166)
(0 0 0.615139432686)
(-0 0 0.6151394322)
(0 0 0.615139432429)
(-0 0 0.615139432322)
(0 0 0.615139432373)
(-0 0 0.615139432349)
(0 0 0.61513943236)
(0 0 0.615139432355)
(0 0 0.615139432357)
(0 0 0.615139432356)
(0 0 0.615139432356)
(0 0 0.615139432356)
(0 0 0.615139432356)
(0 0 0.615139432356)
(0 0 0.615139432357)
(0 0 0.615139432356)
(0 0 0.490560469766)
(0 0 0.582854288134)
(-0 0 0.588310197195)
(-0 0 0.61473884881)
(0 0 0.612502173006)
(-0 0 0.616810930581)
(-0 0 0.615191418102)
(0 0 0.615821729424)
(0 0 0.615344397813)
(-0 0 0.6154722584)
(-0 0 0.615369716084)
(0 0 0.615403888528)
(0 0 0.615384168403)
(-0 0 0.61539308126)
(-0 0 0.615389156388)
(0 0 0.615391244584)
(-0 0 0.615390387849)
(-0 0 0.615390841526)
(0 0 0.615390644484)
(0 0 0.615390740888)
(0 0 0.615390695725)
(0 0 0.615390716528)
(0 0 0.615390706424)
(0 0 0.615390711017)
(0 0 0.615390708797)
(-0 0 0.615390709823)
(-0 0 0.615390709337)
(0 0 0.615390709566)
(0 0 0.615390709459)
(0 0 0.615390709509)
(0 0 0.615390709486)
(0 0 0.615390709497)
(0 0 0.615390709491)
(0 0 0.615390709494)
(0 0 0.615390709492)
(-0 0 0.615390709493)
(0 0 0.615390709493)
(-0 0 0.615390709493)
(0 0 0.615390709493)
(0 0 0.615390709493)
(0 0 0.615390709493)
(-0 0 0.490767779642)
(-0 0 0.583067291605)
(-0 0 0.588258192922)
(-0 0 0.61456973416)
(-0 0 0.612263454006)
(-0 0 0.616557724088)
(0 0 0.614935877587)
(0 0 0.61556784496)
(0 0 0.615091998505)
(0 0 0.615220543244)
(0 0 0.615118338291)
(0 0 0.615152587728)
(0 0 0.615132899882)
(-0 0 0.615141808521)
(-0 0 0.615137883447)
(-0 0 0.615139968502)
(-0 0 0.615139111381)
(-0 0 0.615139564426)
(-0 0 0.615139367401)
(-0 0 0.615139463723)
(0 0 0.615139418589)
(-0 0 0.615139439383)
(0 0 0.615139429287)
(-0 0 0.615139433879)
(0 0 0.61513943166)
(-0 0 0.615139432686)
(0 0 0.6151394322)
(-0 0 0.615139432429)
(0 0 0.615139432322)
(-0 0 0.615139432373)
(-0 0 0.615139432349)
(-0 0 0.61513943236)
(0 0 0.615139432355)
(0 0 0.615139432357)
(0 0 0.615139432356)
(-0 0 0.615139432356)
(0 0 0.615139432356)
(-0 0 0.615139432356)
(0 0 0.615139432357)
(0 0 0.615139432357)
(0 0 0.615139432356)
(-0 0 0.491387937016)
(-0 0 0.583697375784)
(-0 0 0.588085843183)
(-0 0 0.614046038502)
(-0 0 0.611531875521)
(-0 0 0.615783084207)
(0 0 0.614154393004)
(0 0 0.614791305103)
(0 0 0.614319888478)
(0 0 0.614450463508)
(0 0 0.614349261576)
(0 0 0.614383738255)
(0 0 0.614364146297)
(-0 0 0.614373042091)
(-0 0 0.614369116456)
(-0 0 0.614371192132)
(-0 0 0.614370333885)
(-0 0 0.614370785045)
(-0 0 0.614370588074)
(-0 0 0.614370684152)
(0 0 0.614370639106)
(-0 0 0.614370659872)
(0 0 0.614370649803)
(-0 0 0.614370654389)
(0 0 0.614370652176)
(-0 0 0.6143706532)
(0 0 0.614370652715)
(-0 0 0.614370652944)
(0 0 0.614370652837)
(-0 0 0.614370652887)
(-0 0 0.614370652863)
(0 0 0.614370652875)
(0 0 0.614370652869)
(0 0 0.614370652871)
(-0 0 0.61437065287)
(-0 0 0.614370652871)
(0 0 0.614370652871)
(0 0 0.614370652871)
(0 0 0.614370652871)
(0 0 0.614370652871)
(0 0 0.614370652871)
(-0 0 0.492414883728)
(-0 0 0.584716517204)
(-0 0 0.587742956957)
(-0 0 0.613117704577)
(-0 0 0.610260267345)
(-0 0 0.614441058921)
(0 0 0.612801486258)
(0 0 0.613446560334)
(0 0 0.612982441475)
(0 0 0.613116326758)
(0 0 0.613016766569)
(0 0 0.613051609601)
(0 0 0.613032174326)
(-0 0 0.6130410481)
(-0 0 0.613037121674)
(-0 0 0.613039181874)
(-0 0 0.613038321847)
(-0 0 0.613038769907)
(0 0 0.613038573041)
(-0 0 0.613038668714)
(0 0 0.613038623815)
(-0 0 0.613038644534)
(0 0 0.613038634509)
(-0 0 0.613038639086)
(0 0 0.613038636882)
(-0 0 0.613038637903)
(0 0 0.61303863742)
(-0 0 0.613038637648)
(0 0 0.613038637541)
(-0 0 0.613038637591)
(0 0 0.613038637568)
(0 0 0.613038637579)
(0 0 0.613038637574)
(0 0 0.613038637576)
(0 0 0.613038637575)
(-0 0 0.613038637575)
(0 0 0.613038637575)
(0 0 0.613038637575)
(0 0 0.613038637576)
(0 0 0.613038637576)
(-0 0 0.613038637575)
(-0 0 0.493835628539)
(-0 0 0.586073530965)
(-0 0 0.587141981736)
(-0 0 0.611697971371)
(-0 0 0.608366969441)
(-0 0 0.612452044713)
(0 0 0.610798345421)
(0 0 0.611454675703)
(0 0 0.61100059509)
(0 0 0.61113896089)
(0 0 0.611041636933)
(0 0 0.611076967096)
(0 0 0.611057744732)
(-0 0 0.6110665864)
(-0 0 0.611062659182)
(-0 0 0.611064698038)
(-0 0 0.611063835726)
(-0 0 0.611064279525)
(0 0 0.611064082837)
(-0 0 0.611064177952)
(0 0 0.61106413326)
(-0 0 0.611064153912)
(0 0 0.611064143948)
(-0 0 0.611064148512)
(0 0 0.611064146321)
(-0 0 0.611064147338)
(0 0 0.611064146858)
(-0 0 0.611064147084)
(0 0 0.611064146978)
(-0 0 0.611064147028)
(-0 0 0.611064147004)
(0 0 0.611064147016)
(-0 0 0.61106414701)
(0 0 0.611064147012)
(0 0 0.611064147011)
(0 0 0.611064147012)
(0 0 0.611064147012)
(0 0 0.611064147012)
(0 0 0.611064147012)
(0 0 0.611064147012)
(-0 0 0.611064147012)
(-0 0 0.495625386119)
(-0 0 0.587686898441)
(-0 0 0.586152014209)
(-0 0 0.609658219318)
(-0 0 0.605731098947)
(-0 0 0.609698076529)
(0 0 0.608028114996)
(0 0 0.608698614224)
(0 0 0.608257134792)
(0 0 0.60840099883)
(0 0 0.608306445039)
(0 0 0.608342357866)
(0 0 0.608323398509)
(-0 0 0.608332196741)
(-0 0 0.608328269071)
(-0 0 0.608330281021)
(-0 0 0.608329416122)
(-0 0 0.60832985458)
(0 0 0.608329658173)
(-0 0 0.608329752581)
(0 0 0.608329708157)
(-0 0 0.608329728723)
(0 0 0.608329718836)
(-0 0 0.608329723384)
(0 0 0.608329721208)
(-0 0 0.608329722221)
(0 0 0.608329721743)
(-0 0 0.608329721968)
(0 0 0.608329721863)
(-0 0 0.608329721912)
(0 0 0.608329721889)
(0 0 0.6083297219)
(-0 0 0.608329721895)
(0 0 0.608329721897)
(0 0 0.608329721896)
(0 0 0.608329721896)
(0 0 0.608329721896)
(0 0 0.608329721896)
(0 0 0.608329721897)
(-0 0 0.608329721896)
(-0 0 0.608329721896)
(-0 0 0.497739842055)
(-0 0 0.589433815517)
(-0 0 0.584589977713)
(-0 0 0.606820372436)
(-0 0 0.602185552578)
(-0 0 0.606015849476)
(0 0 0.604328916011)
(0 0 0.605016245624)
(0 0 0.604589703637)
(0 0 0.604739888961)
(0 0 0.604648563823)
(0 0 0.604685123062)
(0 0 0.604666469391)
(-0 0 0.604675211285)
(-0 0 0.604671283982)
(-0 0 0.604673263842)
(-0 0 0.604672396322)
(-0 0 0.60467282845)
(0 0 0.604672632467)
(-0 0 0.604672726026)
(0 0 0.604672681934)
(-0 0 0.604672702393)
(0 0 0.6046726926)
(-0 0 0.604672697125)
(0 0 0.604672694969)
(-0 0 0.604672695975)
(0 0 0.604672695501)
(-0 0 0.604672695725)
(0 0 0.60467269562)
(-0 0 0.60467269567)
(0 0 0.604672695646)
(0 0 0.604672695657)
(0 0 0.604672695652)
(0 0 0.604672695654)
(0 0 0.604672695653)
(0 0 0.604672695653)
(0 0 0.604672695653)
(0 0 0.604672695653)
(0 0 0.604672695654)
(-0 0 0.604672695653)
(-0 0 0.604672695654)
(-0 0 0.50010345884)
(-0 0 0.591134449009)
(-0 0 0.582208505584)
(-0 0 0.602946450996)
(-0 0 0.597507346555)
(-0 0 0.601187060315)
(0 0 0.599484182252)
(0 0 0.60019066475)
(0 0 0.599781122268)
(0 0 0.599938215545)
(0 0 0.599850489198)
(0 0 0.599887720649)
(0 0 0.599869407056)
(-0 0 0.599878077814)
(-0 0 0.599874152366)
(-0 0 0.599876095374)
(-0 0 0.599875225527)
(-0 0 0.59987565044)
(0 0 0.599875455073)
(-0 0 0.599875547649)
(0 0 0.599875503954)
(-0 0 0.599875524283)
(0 0 0.599875514599)
(-0 0 0.599875519099)
(0 0 0.599875516965)
(-0 0 0.599875517964)
(0 0 0.599875517494)
(-0 0 0.599875517715)
(0 0 0.599875517612)
(-0 0 0.599875517661)
(0 0 0.599875517637)
(0 0 0.599875517648)
(0 0 0.599875517643)
(-0 0 0.599875517645)
(0 0 0.599875517644)
(0 0 0.599875517644)
(0 0 0.599875517644)
(0 0 0.599875517644)
(0 0 0.599875517645)
(-0 0 0.599875517644)
(-0 0 0.599875517645)
(-0 0 0.502592180751)
(-0 0 0.592529974381)
(-0 0 0.578679941433)
(-0 0 0.597724723377)
(-0 0 0.591404746751)
(-0 0 0.594925497853)
(0 0 0.59320973988)
(0 0 0.59393724383)
(0 0 0.59354644384)
(0 0 0.59371075335)
(0 0 0.593626897394)
(0 0 0.59366478308)
(0 0 0.593646835364)
(-0 0 0.593655417949)
(-0 0 0.593651496766)
(-0 0 0.593653398605)
(-0 0 0.593652527125)
(-0 0 0.593652944041)
(0 0 0.593652749545)
(-0 0 0.593652841006)
(0 0 0.59365279778)
(-0 0 0.593652817953)
(0 0 0.593652808395)
(-0 0 0.593652812862)
(0 0 0.593652810754)
(-0 0 0.593652811744)
(0 0 0.593652811279)
(-0 0 0.593652811498)
(0 0 0.593652811395)
(-0 0 0.593652811444)
(0 0 0.593652811421)
(-0 0 0.593652811432)
(0 0 0.593652811426)
(-0 0 0.593652811428)
(0 0 0.593652811427)
(0 0 0.593652811428)
(0 0 0.593652811428)
(0 0 0.593652811428)
(0 0 0.593652811428)
(-0 0 0.593652811428)
(-0 0 0.593652811428)
(-0 0 0.505008101838)
(-0 0 0.593252428454)
(-0 0 0.573575727413)
(-0 0 0.590751730889)
(-0 0 0.583500460877)
(-0 0 0.586860117847)
(0 0 0.585136864657)
(0 0 0.585886648202)
(0 0 0.585515974504)
(0 0 0.585687486382)
(0 0 0.58560766743)
(0 0 0.585646139887)
(0 0 0.585628575766)
(-0 0 0.585637050479)
(-0 0 0.585633137271)
(-0 0 0.585634994039)
(-0 0 0.58563412211)
(-0 0 0.585634530342)
(0 0 0.585634337045)
(-0 0 0.585634427261)
(0 0 0.58563438458)
(-0 0 0.585634404567)
(0 0 0.585634395152)
(-0 0 0.585634399579)
(0 0 0.585634397501)
(-0 0 0.58563439848)
(0 0 0.585634398021)
(-0 0 0.585634398237)
(0 0 0.585634398136)
(-0 0 0.585634398184)
(0 0 0.585634398161)
(-0 0 0.585634398171)
(0 0 0.585634398166)
(-0 0 0.585634398168)
(0 0 0.585634398167)
(0 0 0.585634398168)
(0 0 0.585634398168)
(0 0 0.585634398168)
(0 0 0.585634398168)
(-0 0 0.585634398168)
(-0 0 0.585634398168)
(-0 0 0.507042510612)
(-0 0 0.59278371717)
(-0 0 0.566340321652)
(-0 0 0.581509247397)
(-0 0 0.573309942705)
(-0 0 0.576513097892)
(0 0 0.574790312696)
(0 0 0.575562804469)
(0 0 0.575213250251)
(0 0 0.575391580408)
(0 0 0.575315858931)
(0 0 0.575354795218)
(0 0 0.575337626012)
(-0 0 0.575345969889)
(-0 0 0.575342070228)
(-0 0 0.575343878343)
(-0 0 0.575343007754)
(-0 0 0.575343406675)
(0 0 0.575343215005)
(-0 0 0.575343303833)
(0 0 0.575343261785)
(-0 0 0.575343281552)
(0 0 0.575343272297)
(-0 0 0.575343276675)
(0 0 0.57534327463)
(-0 0 0.575343275597)
(0 0 0.575343275144)
(-0 0 0.575343275358)
(0 0 0.575343275257)
(-0 0 0.575343275304)
(0 0 0.575343275282)
(0 0 0.575343275292)
(0 0 0.575343275287)
(0 0 0.575343275289)
(0 0 0.575343275288)
(0 0 0.575343275289)
(0 0 0.575343275289)
(0 0 0.575343275289)
(-0 0 0.575343275289)
(-0 0 0.575343275289)
(-0 0 0.575343275289)
(-0 0 0.508222046899)
(-0 0 0.590400235017)
(-0 0 0.556258688228)
(-0 0 0.569334973182)
(-0 0 0.560213582909)
(-0 0 0.563271565727)
(0 0 0.561560022826)
(0 0 0.562354508795)
(0 0 0.56202666118)
(0 0 0.56221099862)
(0 0 0.562139335481)
(0 0 0.56217855014)
(0 0 0.562161784186)
(-0 0 0.562169970037)
(-0 0 0.562166092221)
(-0 0 0.562167848196)
(-0 0 0.562166981515)
(-0 0 0.562167370499)
(0 0 0.56216718101)
(-0 0 0.562167268284)
(0 0 0.562167226973)
(-0 0 0.562167246474)
(0 0 0.562167237399)
(-0 0 0.562167241719)
(0 0 0.56216723971)
(-0 0 0.562167240663)
(0 0 0.562167240217)
(-0 0 0.562167240427)
(0 0 0.562167240328)
(-0 0 0.562167240375)
(0 0 0.562167240353)
(-0 0 0.562167240363)
(-0 0 0.562167240358)
(-0 0 0.56216724036)
(0 0 0.562167240359)
(0 0 0.562167240359)
(0 0 0.562167240359)
(-0 0 0.562167240359)
(-0 0 0.562167240359)
(-0 0 0.562167240359)
(0 0 0.56216724036)
(-0 0 0.507830241968)
(-0 0 0.585098433989)
(-0 0 0.542416368789)
(-0 0 0.553385431229)
(-0 0 0.543421216097)
(-0 0 0.546351311191)
(0 0 0.544664813974)
(0 0 0.545478983133)
(0 0 0.545173036779)
(0 0 0.545362071294)
(0 0 0.545294345798)
(0 0 0.545333581443)
(0 0 0.54531723009)
(-0 0 0.54532522488)
(-0 0 0.545321381267)
(-0 0 0.545323081305)
(-0 0 0.545322222129)
(-0 0 0.545322600444)
(0 0 0.545322413869)
(-0 0 0.545322499369)
(0 0 0.545322458928)
(-0 0 0.545322478103)
(0 0 0.545322469233)
(-0 0 0.545322473479)
(0 0 0.545322471514)
(-0 0 0.545322472449)
(0 0 0.545322472012)
(-0 0 0.545322472218)
(0 0 0.545322472121)
(-0 0 0.545322472166)
(0 0 0.545322472145)
(-0 0 0.545322472154)
(0 0 0.545322472149)
(0 0 0.545322472152)
(0 0 0.54532247215)
(0 0 0.545322472151)
(0 0 0.545322472151)
(-0 0 0.545322472151)
(-0 0 0.545322472151)
(0 0 0.545322472151)
(0 0 0.545322472151)
(-0 0 0.504792972288)
(-0 0 0.575495188616)
(-0 0 0.523651237011)
(-0 0 0.532589119179)
(-0 0 0.521926941048)
(-0 0 0.524750303106)
(0 0 0.523105927314)
(0 0 0.523935205591)