/*--------------------------------*- C++ -*----------------------------------*\
| =========                 |                                                 |
| \\      /  F ield         | OpenFOAM: The Open Source CFD Toolbox           |
|  \\    /   O peration     | Version:  2112                                  |
|   \\  /    A nd           | Website:  www.openfoam.com                      |
|    \\/     M anipulation  |                                                 |
\*---------------------------------------------------------------------------*/
FoamFile
{
    version     2.0;
    format      ascii;
    arch        "LSB;label=32;scalar=64";
    class       volScalarField;
    location    "0.2";
    object      p;
}
// * * * * * * * * * * * * * * * * * * * * * * * * * * * * * * * * * * * * * //

dimensions      [1 -1 -2 0 0 0 0];

internalField   nonuniform List<scalar> 
12013
(
103499.986375
103499.986366
103499.986366
103499.986365
103499.986364
103499.986364
103499.986363
103499.986364
103499.986364
103499.986364
103499.986365
103499.986365
103499.986366
103499.986367
103499.986368
103499.986369
103499.98637
103499.986372
103499.986373
103499.986374
103499.986376
103499.986377
103499.986379
103499.98638
103499.986382
103499.986383
103499.986385
103499.986387
103499.986388
103499.98639
103499.986391
103499.986393
103499.986394
103499.986396
103499.986397
103499.986398
103499.986399
103499.9864
103499.986401
103499.986402
103499.986403
103499.986404
103499.986404
103499.986405
103499.986405
103499.986405
103499.986406
103499.986406
103499.986407
103499.986407
103499.986408
103499.986409
103499.98641
103499.986412
103499.986414
103499.986417
103499.986421
103499.986426
103499.986432
103499.986439
103499.986448
103499.986459
103499.986472
103499.986488
103499.986506
103499.986529
103499.986556
103499.986589
103499.986628
103499.986674
103499.98673
103499.986798
103499.986881
103499.986983
103499.98711
103499.98727
103499.987475
103499.987741
103499.9881
103499.988642
103499.989458
103499.962747
103499.962739
103499.962738
103499.962738
103499.962737
103499.962736
103499.962736
103499.962736
103499.962737
103499.962737
103499.962737
103499.962738
103499.962739
103499.96274
103499.962741
103499.962742
103499.962743
103499.962744
103499.962746
103499.962747
103499.962748
103499.96275
103499.962751
103499.962753
103499.962755
103499.962756
103499.962758
103499.962759
103499.962761
103499.962763
103499.962764
103499.962766
103499.962767
103499.962769
103499.96277
103499.962771
103499.962773
103499.962774
103499.962775
103499.962776
103499.962777
103499.962777
103499.962778
103499.962779
103499.962779
103499.96278
103499.962781
103499.962781
103499.962782
103499.962783
103499.962784
103499.962786
103499.962787
103499.96279
103499.962792
103499.962796
103499.9628
103499.962806
103499.962812
103499.96282
103499.96283
103499.962842
103499.962855
103499.962872
103499.962892
103499.962915
103499.962943
103499.962976
103499.963016
103499.963062
103499.963118
103499.963185
103499.963265
103499.963362
103499.96348
103499.963624
103499.963801
103499.964014
103499.964272
103499.964603
103499.964985
103499.937464
103499.937457
103499.937456
103499.937455
103499.937454
103499.937454
103499.937454
103499.937454
103499.937454
103499.937455
103499.937455
103499.937456
103499.937457
103499.937458
103499.937459
103499.93746
103499.937461
103499.937462
103499.937463
103499.937465
103499.937466
103499.937468
103499.937469
103499.937471
103499.937472
103499.937474
103499.937476
103499.937477
103499.937479
103499.93748
103499.937482
103499.937484
103499.937485
103499.937487
103499.937488
103499.937489
103499.937491
103499.937492
103499.937493
103499.937494
103499.937495
103499.937496
103499.937497
103499.937498
103499.937499
103499.937499
103499.9375
103499.937501
103499.937502
103499.937504
103499.937505
103499.937507
103499.937509
103499.937512
103499.937515
103499.93752
103499.937524
103499.93753
103499.937538
103499.937546
103499.937557
103499.937569
103499.937583
103499.9376
103499.937621
103499.937644
103499.937672
103499.937705
103499.937744
103499.937789
103499.937843
103499.937906
103499.937979
103499.938066
103499.938168
103499.938286
103499.93842
103499.938565
103499.938708
103499.938823
103499.938836
103499.91041
103499.910404
103499.910403
103499.910402
103499.910401
103499.910401
103499.910401
103499.910401
103499.910401
103499.910401
103499.910402
103499.910403
103499.910403
103499.910404
103499.910405
103499.910406
103499.910408
103499.910409
103499.91041
103499.910411
103499.910413
103499.910414
103499.910416
103499.910418
103499.910419
103499.910421
103499.910422
103499.910424
103499.910426
103499.910427
103499.910429
103499.910431
103499.910432
103499.910434
103499.910435
103499.910437
103499.910438
103499.910439
103499.910441
103499.910442
103499.910443
103499.910444
103499.910445
103499.910446
103499.910447
103499.910448
103499.910449
103499.910451
103499.910452
103499.910454
103499.910456
103499.910458
103499.910461
103499.910464
103499.910468
103499.910472
103499.910478
103499.910484
103499.910492
103499.910501
103499.910512
103499.910524
103499.910539
103499.910556
103499.910577
103499.9106
103499.910627
103499.910659
103499.910696
103499.910738
103499.910787
103499.910844
103499.910908
103499.910981
103499.911062
103499.91115
103499.911241
103499.911325
103499.911385
103499.911391
103499.911292
103499.881461
103499.881456
103499.881455
103499.881454
103499.881453
103499.881453
103499.881453
103499.881453
103499.881453
103499.881453
103499.881454
103499.881455
103499.881455
103499.881456
103499.881457
103499.881458
103499.881459
103499.881461
103499.881462
103499.881463
103499.881465
103499.881466
103499.881468
103499.881469
103499.881471
103499.881473
103499.881474
103499.881476
103499.881478
103499.881479
103499.881481
103499.881483
103499.881484
103499.881486
103499.881487
103499.881489
103499.88149
103499.881492
103499.881493
103499.881494
103499.881496
103499.881497
103499.881498
103499.881499
103499.881501
103499.881502
103499.881503
103499.881505
103499.881507
103499.881509
103499.881511
103499.881514
103499.881517
103499.88152
103499.881524
103499.881529
103499.881535
103499.881542
103499.88155
103499.88156
103499.881571
103499.881583
103499.881598
103499.881615
103499.881635
103499.881658
103499.881684
103499.881713
103499.881747
103499.881785
103499.881828
103499.881876
103499.881929
103499.881986
103499.882045
103499.882104
103499.882157
103499.882195
103499.882203
103499.882162
103499.882045
103499.850485
103499.85048
103499.850479
103499.850478
103499.850477
103499.850477
103499.850477
103499.850477
103499.850477
103499.850478
103499.850478
103499.850479
103499.85048
103499.85048
103499.850481
103499.850482
103499.850484
103499.850485
103499.850486
103499.850488
103499.850489
103499.85049
103499.850492
103499.850494
103499.850495
103499.850497
103499.850499
103499.8505
103499.850502
103499.850504
103499.850505
103499.850507
103499.850509
103499.85051
103499.850512
103499.850513
103499.850515
103499.850516
103499.850518
103499.850519
103499.850521
103499.850522
103499.850524
103499.850525
103499.850527
103499.850528
103499.85053
103499.850532
103499.850534
103499.850536
103499.850539
103499.850542
103499.850545
103499.850549
103499.850553
103499.850559
103499.850565
103499.850572
103499.85058
103499.85059
103499.850601
103499.850613
103499.850628
103499.850644
103499.850663
103499.850684
103499.850708
103499.850735
103499.850764
103499.850797
103499.850833
103499.850871
103499.850912
103499.850952
103499.850992
103499.851026
103499.85105
103499.851056
103499.851035
103499.850975
103499.850864
103499.817338
103499.817334
103499.817333
103499.817332
103499.817332
103499.817331
103499.817331
103499.817331
103499.817332
103499.817332
103499.817333
103499.817333
103499.817334
103499.817335
103499.817336
103499.817337
103499.817338
103499.817339
103499.817341
103499.817342
103499.817343
103499.817345
103499.817346
103499.817348
103499.81735
103499.817351
103499.817353
103499.817355
103499.817356
103499.817358
103499.81736
103499.817362
103499.817363
103499.817365
103499.817367
103499.817368
103499.81737
103499.817371
103499.817373
103499.817375
103499.817376
103499.817378
103499.817379
103499.817381
103499.817383
103499.817384
103499.817386
103499.817389
103499.817391
103499.817393
103499.817396
103499.8174
103499.817403
103499.817408
103499.817412
103499.817418
103499.817424
103499.817432
103499.81744
103499.817449
103499.81746
103499.817472
103499.817486
103499.817501
103499.817518
103499.817537
103499.817559
103499.817582
103499.817607
103499.817633
103499.817661
103499.81769
103499.817718
103499.817744
103499.817766
103499.817781
103499.817784
103499.81777
103499.817734
103499.81767
103499.817573
103499.78187
103499.781866
103499.781865
103499.781865
103499.781864
103499.781864
103499.781864
103499.781864
103499.781864
103499.781865
103499.781865
103499.781866
103499.781867
103499.781868
103499.781869
103499.78187
103499.781871
103499.781872
103499.781873
103499.781875
103499.781876
103499.781878
103499.781879
103499.781881
103499.781882
103499.781884
103499.781886
103499.781887
103499.781889
103499.781891
103499.781893
103499.781894
103499.781896
103499.781898
103499.7819
103499.781901
103499.781903
103499.781905
103499.781906
103499.781908
103499.78191
103499.781912
103499.781913
103499.781915
103499.781917
103499.781919
103499.781921
103499.781924
103499.781926
103499.781929
103499.781932
103499.781936
103499.78194
103499.781944
103499.781949
103499.781955
103499.781961
103499.781968
103499.781976
103499.781986
103499.781996
103499.782007
103499.78202
103499.782034
103499.782049
103499.782065
103499.782083
103499.782102
103499.782122
103499.782143
103499.782163
103499.782182
103499.7822
103499.782214
103499.782222
103499.782222
103499.782211
103499.782187
103499.782145
103499.782083
103499.781999
103499.743917
103499.743915
103499.743913
103499.743913
103499.743913
103499.743912
103499.743912
103499.743912
103499.743913
103499.743913
103499.743914
103499.743914
103499.743915
103499.743916
103499.743917
103499.743918
103499.743919
103499.74392
103499.743922
103499.743923
103499.743924
103499.743926
103499.743927
103499.743929
103499.743931
103499.743932
103499.743934
103499.743936
103499.743938
103499.743939
103499.743941
103499.743943
103499.743945
103499.743946
103499.743948
103499.74395
103499.743952
103499.743954
103499.743955
103499.743957
103499.743959
103499.743961
103499.743963
103499.743965
103499.743967
103499.743969
103499.743972
103499.743974
103499.743977
103499.74398
103499.743983
103499.743987
103499.743991
103499.743996
103499.744001
103499.744006
103499.744013
103499.74402
103499.744027
103499.744036
103499.744045
103499.744056
103499.744067
103499.744079
103499.744092
103499.744106
103499.74412
103499.744135
103499.74415
103499.744164
103499.744177
103499.744188
103499.744196
103499.7442
103499.744199
103499.744189
103499.74417
103499.74414
103499.744097
103499.74404
103499.743969
103499.703306
103499.703304
103499.703303
103499.703303
103499.703302
103499.703302
103499.703302
103499.703302
103499.703303
103499.703303
103499.703304
103499.703304
103499.703305
103499.703306
103499.703307
103499.703308
103499.703309
103499.70331
103499.703312
103499.703313
103499.703314
103499.703316
103499.703317
103499.703319
103499.703321
103499.703322
103499.703324
103499.703326
103499.703328
103499.703329
103499.703331
103499.703333
103499.703335
103499.703337
103499.703339
103499.70334
103499.703342
103499.703344
103499.703346
103499.703348
103499.70335
103499.703352
103499.703354
103499.703356
103499.703359
103499.703361
103499.703363
103499.703366
103499.703369
103499.703372
103499.703376
103499.70338
103499.703384
103499.703388
103499.703393
103499.703399
103499.703405
103499.703411
103499.703419
103499.703426
103499.703435
103499.703444
103499.703454
103499.703464
103499.703474
103499.703485
103499.703496
103499.703506
103499.703516
103499.703524
103499.703531
103499.703536
103499.703537
103499.703533
103499.703524
103499.703509
103499.703485
103499.703453
103499.703412
103499.70336
103499.7033
103499.659851
103499.659849
103499.659848
103499.659848
103499.659848
103499.659848
103499.659848
103499.659848
103499.659848
103499.659849
103499.659849
103499.65985
103499.659851
103499.659851
103499.659852
103499.659853
103499.659855
103499.659856
103499.659857
103499.659858
103499.65986
103499.659861
103499.659863
103499.659864
103499.659866
103499.659868
103499.659869
103499.659871
103499.659873
103499.659875
103499.659877
103499.659879
103499.65988
103499.659882
103499.659884
103499.659886
103499.659888
103499.65989
103499.659892
103499.659894
103499.659896
103499.659898
103499.659901
103499.659903
103499.659905
103499.659908
103499.65991
103499.659913
103499.659916
103499.65992
103499.659923
103499.659927
103499.659931
103499.659936
103499.65994
103499.659946
103499.659951
103499.659957
103499.659964
103499.659971
103499.659978
103499.659986
103499.659993
103499.660001
103499.660009
103499.660017
103499.660024
103499.660031
103499.660036
103499.66004
103499.660041
103499.66004
103499.660036
103499.660027
103499.660014
103499.659995
103499.659969
103499.659937
103499.659899
103499.659853
103499.659801
103499.613351
103499.613351
103499.61335
103499.61335
103499.613349
103499.613349
103499.613349
103499.613349
103499.61335
103499.61335
103499.613351
103499.613351
103499.613352
103499.613353
103499.613354
103499.613355
103499.613356
103499.613357
103499.613359
103499.61336
103499.613361
103499.613363
103499.613364
103499.613366
103499.613368
103499.613369
103499.613371
103499.613373
103499.613375
103499.613376
103499.613378
103499.61338
103499.613382
103499.613384
103499.613386
103499.613388
103499.61339
103499.613392
103499.613394
103499.613396
103499.613398
103499.613401
103499.613403
103499.613405
103499.613408
103499.613411
103499.613413
103499.613416
103499.613419
103499.613423
103499.613426
103499.61343
103499.613434
103499.613438
103499.613443
103499.613448
103499.613453
103499.613458
103499.613464
103499.613469
103499.613475
103499.613481
103499.613487
103499.613493
103499.613498
103499.613503
103499.613507
103499.61351
103499.613512
103499.613512
103499.613509
103499.613504
103499.613496
103499.613483
103499.613467
103499.613447
103499.613421
103499.613391
103499.613355
103499.613315
103499.61327
103499.563595
103499.563595
103499.563594
103499.563594
103499.563594
103499.563594
103499.563594
103499.563594
103499.563594
103499.563595
103499.563595
103499.563596
103499.563597
103499.563598
103499.563599
103499.5636
103499.563601
103499.563602
103499.563603
103499.563605
103499.563606
103499.563607
103499.563609
103499.56361
103499.563612
103499.563614
103499.563616
103499.563617
103499.563619
103499.563621
103499.563623
103499.563625
103499.563627
103499.563629
103499.563631
103499.563633
103499.563635
103499.563637
103499.563639
103499.563641
103499.563644
103499.563646
103499.563648
103499.563651
103499.563653
103499.563656
103499.563659
103499.563662
103499.563665
103499.563668
103499.563672
103499.563675
103499.563679
103499.563683
103499.563687
103499.563691
103499.563696
103499.5637
103499.563705
103499.56371
103499.563714
103499.563719
103499.563723
103499.563726
103499.563729
103499.563732
103499.563733
103499.563733
103499.563731
103499.563728
103499.563722
103499.563714
103499.563703
103499.563689
103499.563672
103499.563651
103499.563626
103499.563597
103499.563565
103499.563529
103499.563491
103499.510354
103499.510354
103499.510353
103499.510353
103499.510353
103499.510353
103499.510353
103499.510354
103499.510354
103499.510354
103499.510355
103499.510356
103499.510356
103499.510357
103499.510358
103499.510359
103499.51036
103499.510361
103499.510363
103499.510364
103499.510365
103499.510367
103499.510368
103499.51037
103499.510371
103499.510373
103499.510375
103499.510377
103499.510378
103499.51038
103499.510382
103499.510384
103499.510386
103499.510388
103499.51039
103499.510392
103499.510394
103499.510396
103499.510399
103499.510401
103499.510403
103499.510406
103499.510408
103499.510411
103499.510413
103499.510416
103499.510419
103499.510422
103499.510425
103499.510428
103499.510431
103499.510434
103499.510438
103499.510441
103499.510445
103499.510449
103499.510452
103499.510456
103499.51046
103499.510463
103499.510466
103499.510469
103499.510471
103499.510473
103499.510474
103499.510474
103499.510473
103499.510471
103499.510467
103499.510461
103499.510453
103499.510443
103499.510431
103499.510416
103499.510398
103499.510377
103499.510354
103499.510328
103499.510299
103499.510267
103499.510233
103499.453384
103499.453384
103499.453383
103499.453383
103499.453383
103499.453383
103499.453383
103499.453384
103499.453384
103499.453385
103499.453385
103499.453386
103499.453386
103499.453387
103499.453388
103499.453389
103499.45339
103499.453391
103499.453393
103499.453394
103499.453395
103499.453397
103499.453398
103499.4534
103499.453401
103499.453403
103499.453405
103499.453406
103499.453408
103499.45341
103499.453412
103499.453414
103499.453416
103499.453418
103499.45342
103499.453422
103499.453424
103499.453426
103499.453429
103499.453431
103499.453433
103499.453436
103499.453438
103499.453441
103499.453443
103499.453446
103499.453449
103499.453451
103499.453454
103499.453457
103499.45346
103499.453463
103499.453466
103499.453469
103499.453473
103499.453476
103499.453479
103499.453481
103499.453484
103499.453486
103499.453488
103499.453489
103499.45349
103499.45349
103499.453489
103499.453488
103499.453485
103499.45348
103499.453475
103499.453467
103499.453458
103499.453447
103499.453434
103499.453419
103499.453401
103499.453382
103499.45336
103499.453336
103499.45331
103499.453282
103499.453253
103499.392423
103499.392423
103499.392423
103499.392423
103499.392423
103499.392423
103499.392423
103499.392423
103499.392424
103499.392424
103499.392425
103499.392425
103499.392426
103499.392427
103499.392428
103499.392429
103499.39243
103499.392431
103499.392432
103499.392434
103499.392435
103499.392436
103499.392438
103499.392439
103499.392441
103499.392442
103499.392444
103499.392446
103499.392448
103499.392449
103499.392451
103499.392453
103499.392455
103499.392457
103499.392459
103499.392461
103499.392463
103499.392466
103499.392468
103499.39247
103499.392473
103499.392475
103499.392477
103499.39248
103499.392482
103499.392485
103499.392487
103499.39249
103499.392493
103499.392495
103499.392498
103499.392501
103499.392503
103499.392506
103499.392509
103499.392511
103499.392513
103499.392515
103499.392516
103499.392518
103499.392518
103499.392518
103499.392518
103499.392516
103499.392514
103499.392511
103499.392507
103499.392501
103499.392494
103499.392486
103499.392476
103499.392465
103499.392451
103499.392437
103499.39242
103499.392402
103499.392382
103499.39236
103499.392337
103499.392313
103499.392287
103499.327193
103499.327193
103499.327192
103499.327192
103499.327192
103499.327193
103499.327193
103499.327193
103499.327193
103499.327194
103499.327194
103499.327195
103499.327196
103499.327197
103499.327197
103499.327198
103499.327199
103499.327201
103499.327202
103499.327203
103499.327204
103499.327206
103499.327207
103499.327209
103499.32721
103499.327212
103499.327213
103499.327215
103499.327217
103499.327219
103499.32722
103499.327222
103499.327224
103499.327226
103499.327228
103499.32723
103499.327232
103499.327235
103499.327237
103499.327239
103499.327241
103499.327244
103499.327246
103499.327248
103499.327251
103499.327253
103499.327256
103499.327258
103499.32726
103499.327263
103499.327265
103499.327267
103499.32727
103499.327272
103499.327273
103499.327275
103499.327276
103499.327277
103499.327278
103499.327278
103499.327278
103499.327277
103499.327275
103499.327273
103499.327269
103499.327265
103499.32726
103499.327254
103499.327246
103499.327237
103499.327227
103499.327216
103499.327203
103499.327189
103499.327173
103499.327156
103499.327138
103499.327119
103499.327099
103499.327077
103499.327055
103499.257393
103499.257393
103499.257393
103499.257393
103499.257393
103499.257393
103499.257393
103499.257394
103499.257394
103499.257394
103499.257395
103499.257396
103499.257396
103499.257397
103499.257398
103499.257399
103499.2574
103499.257401
103499.257402
103499.257403
103499.257405
103499.257406
103499.257407
103499.257409
103499.25741
103499.257412
103499.257413
103499.257415
103499.257417
103499.257418
103499.25742
103499.257422
103499.257424
103499.257426
103499.257428
103499.25743
103499.257432
103499.257434
103499.257436
103499.257438
103499.257441
103499.257443
103499.257445
103499.257447
103499.257449
103499.257452
103499.257454
103499.257456
103499.257458
103499.25746
103499.257462
103499.257464
103499.257465
103499.257467
103499.257468
103499.257469
103499.25747
103499.25747
103499.25747
103499.257469
103499.257468
103499.257466
103499.257464
103499.25746
103499.257456
103499.257451
103499.257446
103499.257439
103499.257431
103499.257422
103499.257412
103499.257401
103499.257389
103499.257376
103499.257362
103499.257346
103499.25733
103499.257313
103499.257295
103499.257276
103499.257257
103499.182704
103499.182704
103499.182704
103499.182704
103499.182704
103499.182704
103499.182705
103499.182705
103499.182705
103499.182706
103499.182706
103499.182707
103499.182708
103499.182708
103499.182709
103499.18271
103499.182711
103499.182712
103499.182713
103499.182714
103499.182716
103499.182717
103499.182718
103499.18272
103499.182721
103499.182723
103499.182724
103499.182726
103499.182727
103499.182729
103499.182731
103499.182733
103499.182734
103499.182736
103499.182738
103499.18274
103499.182742
103499.182744
103499.182746
103499.182748
103499.18275
103499.182752
103499.182754
103499.182756
103499.182758
103499.18276
103499.182762
103499.182764
103499.182766
103499.182767
103499.182769
103499.18277
103499.182771
103499.182772
103499.182773
103499.182773
103499.182773
103499.182773
103499.182772
103499.182771
103499.182769
103499.182766
103499.182763
103499.182759
103499.182755
103499.182749
103499.182743
103499.182736
103499.182729
103499.18272
103499.182711
103499.1827
103499.182689
103499.182677
103499.182664
103499.18265
103499.182636
103499.182621
103499.182605
103499.182589
103499.182572
103499.102784
103499.102784
103499.102784
103499.102784
103499.102784
103499.102784
103499.102784
103499.102785
103499.102785
103499.102786
103499.102786
103499.102787
103499.102787
103499.102788
103499.102789
103499.10279
103499.102791
103499.102792
103499.102793
103499.102794
103499.102795
103499.102796
103499.102797
103499.102799
103499.1028
103499.102802
103499.102803
103499.102805
103499.102806
103499.102808
103499.102809
103499.102811
103499.102813
103499.102815
103499.102816
103499.102818
103499.10282
103499.102822
103499.102824
103499.102826
103499.102828
103499.102829
103499.102831
103499.102833
103499.102835
103499.102836
103499.102838
103499.10284
103499.102841
103499.102842
103499.102843
103499.102844
103499.102845
103499.102845
103499.102845
103499.102845
103499.102845
103499.102844
103499.102842
103499.10284
103499.102838
103499.102835
103499.102831
103499.102827
103499.102823
103499.102817
103499.102811
103499.102804
103499.102797
103499.102789
103499.10278
103499.10277
103499.10276
103499.102749
103499.102737
103499.102725
103499.102713
103499.1027
103499.102686
103499.102672
103499.102657
103499.017266
103499.017266
103499.017265
103499.017265
103499.017266
103499.017266
103499.017266
103499.017267
103499.017267
103499.017267
103499.017268
103499.017268
103499.017269
103499.01727
103499.017271
103499.017271
103499.017272
103499.017273
103499.017274
103499.017275
103499.017276
103499.017277
103499.017279
103499.01728
103499.017281
103499.017282
103499.017284
103499.017285
103499.017287
103499.017288
103499.01729
103499.017291
103499.017293
103499.017295
103499.017296
103499.017298
103499.0173
103499.017301
103499.017303
103499.017305
103499.017306
103499.017308
103499.017309
103499.017311
103499.017312
103499.017314
103499.017315
103499.017316
103499.017317
103499.017318
103499.017319
103499.017319
103499.017319
103499.017319
103499.017319
103499.017318
103499.017317
103499.017316
103499.017314
103499.017312
103499.017309
103499.017306
103499.017302
103499.017298
103499.017293
103499.017288
103499.017282
103499.017275
103499.017268
103499.017261
103499.017253
103499.017244
103499.017235
103499.017225
103499.017215
103499.017204
103499.017193
103499.017182
103499.01717
103499.017158
103499.017146
103498.925757
103498.925757
103498.925757
103498.925757
103498.925757
103498.925758
103498.925758
103498.925758
103498.925758
103498.925759
103498.925759
103498.92576
103498.925761
103498.925761
103498.925762
103498.925763
103498.925763
103498.925764
103498.925765
103498.925766
103498.925767
103498.925768
103498.925769
103498.92577
103498.925772
103498.925773
103498.925774
103498.925775
103498.925777
103498.925778
103498.92578
103498.925781
103498.925782
103498.925784
103498.925785
103498.925787
103498.925788
103498.92579
103498.925791
103498.925793
103498.925794
103498.925796
103498.925797
103498.925798
103498.925799
103498.9258
103498.925801
103498.925802
103498.925803
103498.925803
103498.925803
103498.925803
103498.925803
103498.925803
103498.925802
103498.925801
103498.925799
103498.925798
103498.925796
103498.925793
103498.92579
103498.925787
103498.925783
103498.925779
103498.925774
103498.925769
103498.925763
103498.925757
103498.925751
103498.925744
103498.925737
103498.925729
103498.925721
103498.925712
103498.925703
103498.925694
103498.925685
103498.925675
103498.925665
103498.925654
103498.925644
103498.827839
103498.827839
103498.827839
103498.827839
103498.827839
103498.827839
103498.82784
103498.82784
103498.82784
103498.827841
103498.827841
103498.827842
103498.827842
103498.827843
103498.827843
103498.827844
103498.827845
103498.827846
103498.827847
103498.827847
103498.827848
103498.827849
103498.82785
103498.827851
103498.827852
103498.827853
103498.827855
103498.827856
103498.827857
103498.827858
103498.827859
103498.827861
103498.827862
103498.827863
103498.827864
103498.827866
103498.827867
103498.827868
103498.827869
103498.827871
103498.827872
103498.827873
103498.827874
103498.827875
103498.827875
103498.827876
103498.827877
103498.827877
103498.827877
103498.827878
103498.827877
103498.827877
103498.827877
103498.827876
103498.827875
103498.827873
103498.827872
103498.82787
103498.827867
103498.827865
103498.827862
103498.827858
103498.827855
103498.827851
103498.827846
103498.827841
103498.827836
103498.827831
103498.827825
103498.827819
103498.827812
103498.827805
103498.827798
103498.827791
103498.827783
103498.827775
103498.827767
103498.827758
103498.82775
103498.827741
103498.827732
103498.723062
103498.723062
103498.723062
103498.723062
103498.723062
103498.723063
103498.723063
103498.723063
103498.723063
103498.723064
103498.723064
103498.723065
103498.723065
103498.723066
103498.723066
103498.723067
103498.723068
103498.723068
103498.723069
103498.72307
103498.723071
103498.723071
103498.723072
103498.723073
103498.723074
103498.723075
103498.723076
103498.723077
103498.723078
103498.723079
103498.72308
103498.723081
103498.723082
103498.723083
103498.723084
103498.723085
103498.723086
103498.723087
103498.723088
103498.723089
103498.72309
103498.723091
103498.723091
103498.723092
103498.723092
103498.723093
103498.723093
103498.723093
103498.723093
103498.723093
103498.723092
103498.723092
103498.723091
103498.72309
103498.723088
103498.723087
103498.723085
103498.723083
103498.72308
103498.723078
103498.723075
103498.723071
103498.723068
103498.723064
103498.72306
103498.723055
103498.72305
103498.723045
103498.72304
103498.723035
103498.723029
103498.723023
103498.723017
103498.72301
103498.723004
103498.722997
103498.72299
103498.722983
103498.722976
103498.722969
103498.722961
103498.610946
103498.610946
103498.610946
103498.610946
103498.610946
103498.610947
103498.610947
103498.610947
103498.610947
103498.610948
103498.610948
103498.610949
103498.610949
103498.610949
103498.61095
103498.61095
103498.610951
103498.610952
103498.610952
103498.610953
103498.610954
103498.610954
103498.610955
103498.610956
103498.610956
103498.610957
103498.610958
103498.610959
103498.61096
103498.610961
103498.610961
103498.610962
103498.610963
103498.610964
103498.610965
103498.610965
103498.610966
103498.610967
103498.610967
103498.610968
103498.610968
103498.610969
103498.610969
103498.610969
103498.61097
103498.61097
103498.61097
103498.610969
103498.610969
103498.610968
103498.610968
103498.610967
103498.610966
103498.610964
103498.610963
103498.610961
103498.610959
103498.610957
103498.610954
103498.610952
103498.610949
103498.610946
103498.610942
103498.610939
103498.610935
103498.610931
103498.610926
103498.610922
103498.610917
103498.610912
103498.610907
103498.610902
103498.610897
103498.610891
103498.610885
103498.61088
103498.610874
103498.610868
103498.610862
103498.610855
103498.610849
103498.490977
103498.490977
103498.490977
103498.490977
103498.490977
103498.490978
103498.490978
103498.490978
103498.490978
103498.490979
103498.490979
103498.490979
103498.49098
103498.49098
103498.49098
103498.490981
103498.490981
103498.490982
103498.490982
103498.490983
103498.490983
103498.490984
103498.490984
103498.490985
103498.490986
103498.490986
103498.490987
103498.490987
103498.490988
103498.490989
103498.490989
103498.49099
103498.49099
103498.490991
103498.490991
103498.490992
103498.490992
103498.490993
103498.490993
103498.490993
103498.490993
103498.490993
103498.490993
103498.490993
103498.490993
103498.490993
103498.490992
103498.490992
103498.490991
103498.49099
103498.490989
103498.490988
103498.490987
103498.490985
103498.490983
103498.490981
103498.490979
103498.490977
103498.490975
103498.490972
103498.490969
103498.490966
103498.490963
103498.49096
103498.490956
103498.490952
103498.490949
103498.490945
103498.49094