/*--------------------------------*- C++ -*----------------------------------*\
| =========                 |                                                 |
| \\      /  F ield         | OpenFOAM: The Open Source CFD Toolbox           |
|  \\    /   O peration     | Version:  2112                                  |
|   \\  /    A nd           | Website:  www.openfoam.com                      |
|    \\/     M anipulation  |                                                 |
\*---------------------------------------------------------------------------*/
FoamFile
{
    version     2.0;
    format      ascii;
    arch        "LSB;label=32;scalar=64";
    class       volScalarField;
    location    "0.2";
    object      p_rgh;
}
// * * * * * * * * * * * * * * * * * * * * * * * * * * * * * * * * * * * * * //

dimensions      [1 -1 -2 0 0 0 0];

internalField   nonuniform List<scalar> 
12013
(
103499.997788
103499.99778
103499.99778
103499.997779
103499.997778
103499.997778
103499.997777
103499.997777
103499.997778
103499.997778
103499.997779
103499.997779
103499.99778
103499.997781
103499.997782
103499.997783
103499.997784
103499.997785
103499.997787
103499.997788
103499.99779
103499.997791
103499.997793
103499.997794
103499.997796
103499.997797
103499.997799
103499.9978
103499.997802
103499.997804
103499.997805
103499.997807
103499.997808
103499.99781
103499.997811
103499.997812
103499.997813
103499.997814
103499.997815
103499.997816
103499.997816
103499.997817
103499.997818
103499.997818
103499.997818
103499.997818
103499.997819
103499.997819
103499.997819
103499.99782
103499.99782
103499.997821
103499.997822
103499.997824
103499.997826
103499.997828
103499.997832
103499.997836
103499.997842
103499.997848
103499.997857
103499.997867
103499.99788
103499.997895
103499.997913
103499.997935
103499.997962
103499.997993
103499.998031
103499.998077
103499.998132
103499.998199
103499.998281
103499.998382
103499.998507
103499.998666
103499.998869
103499.999134
103499.999491
103500.00003
103500.000844
103499.997788
103499.99778
103499.99778
103499.997779
103499.997778
103499.997777
103499.997777
103499.997777
103499.997778
103499.997778
103499.997779
103499.997779
103499.99778
103499.997781
103499.997782
103499.997783
103499.997784
103499.997785
103499.997787
103499.997788
103499.997789
103499.997791
103499.997793
103499.997794
103499.997796
103499.997797
103499.997799
103499.9978
103499.997802
103499.997804
103499.997805
103499.997807
103499.997808
103499.99781
103499.997811
103499.997812
103499.997813
103499.997814
103499.997815
103499.997816
103499.997816
103499.997817
103499.997817
103499.997818
103499.997818
103499.997818
103499.997819
103499.997819
103499.997819
103499.99782
103499.99782
103499.997821
103499.997822
103499.997823
103499.997825
103499.997828
103499.997831
103499.997836
103499.997841
103499.997848
103499.997856
103499.997866
103499.997878
103499.997893
103499.997911
103499.997932
103499.997958
103499.997989
103499.998026
103499.99807
103499.998123
103499.998187
103499.998264
103499.998357
103499.998471
103499.998611
103499.998783
103499.998991
103499.999243
103499.999567
103499.999942
103499.997788
103499.99778
103499.997779
103499.997779
103499.997778
103499.997777
103499.997777
103499.997777
103499.997778
103499.997778
103499.997779
103499.997779
103499.99778
103499.997781
103499.997782
103499.997783
103499.997784
103499.997785
103499.997787
103499.997788
103499.997789
103499.997791
103499.997792
103499.997794
103499.997796
103499.997797
103499.997799
103499.9978
103499.997802
103499.997804
103499.997805
103499.997807
103499.997808
103499.997809
103499.997811
103499.997812
103499.997813
103499.997814
103499.997815
103499.997816
103499.997816
103499.997817
103499.997817
103499.997818
103499.997818
103499.997818
103499.997818
103499.997819
103499.997819
103499.997819
103499.99782
103499.997821
103499.997822
103499.997823
103499.997825
103499.997827
103499.99783
103499.997834
103499.997839
103499.997846
103499.997854
103499.997863
103499.997875
103499.997889
103499.997906
103499.997927
103499.997951
103499.99798
103499.998014
103499.998055
103499.998104
103499.998161
103499.99823
103499.998311
103499.998406
103499.998517
103499.998643
103499.99878
103499.998915
103499.99902
103499.999022
103499.997787
103499.99778
103499.997779
103499.997778
103499.997778
103499.997777
103499.997777
103499.997777
103499.997778
103499.997778
103499.997779
103499.997779
103499.99778
103499.997781
103499.997782
103499.997783
103499.997784
103499.997785
103499.997787
103499.997788
103499.997789
103499.997791
103499.997792
103499.997794
103499.997796
103499.997797
103499.997799
103499.9978
103499.997802
103499.997804
103499.997805
103499.997807
103499.997808
103499.997809
103499.997811
103499.997812
103499.997813
103499.997814
103499.997815
103499.997816
103499.997816
103499.997817
103499.997817
103499.997818
103499.997818
103499.997818
103499.997818
103499.997818
103499.997819
103499.997819
103499.997819
103499.99782
103499.997821
103499.997822
103499.997824
103499.997826
103499.997829
103499.997832
103499.997837
103499.997843
103499.99785
103499.997859
103499.99787
103499.997883
103499.997899
103499.997917
103499.997939
103499.997966
103499.997996
103499.998032
103499.998075
103499.998124
103499.99818
103499.998245
103499.998317
103499.998395
103499.998476
103499.998549
103499.998598
103499.998592
103499.998481
103499.997786
103499.99778
103499.997779
103499.997778
103499.997778
103499.997777
103499.997777
103499.997777
103499.997777
103499.997778
103499.997778
103499.997779
103499.99778
103499.997781
103499.997782
103499.997783
103499.997784
103499.997785
103499.997787
103499.997788
103499.997789
103499.997791
103499.997792
103499.997794
103499.997795
103499.997797
103499.997799
103499.9978
103499.997802
103499.997803
103499.997805
103499.997806
103499.997808
103499.997809
103499.997811
103499.997812
103499.997813
103499.997814
103499.997815
103499.997816
103499.997816
103499.997817
103499.997817
103499.997817
103499.997818
103499.997818
103499.997818
103499.997818
103499.997818
103499.997818
103499.997819
103499.997819
103499.99782
103499.997821
103499.997822
103499.997824
103499.997826
103499.99783
103499.997834
103499.997839
103499.997845
103499.997853
103499.997863
103499.997874
103499.997888
103499.997904
103499.997923
103499.997946
103499.997972
103499.998002
103499.998036
103499.998074
103499.998117
103499.998163
103499.998212
103499.998259
103499.998299
103499.998324
103499.99832
103499.998265
103499.998135
103499.997785
103499.99778
103499.997779
103499.997778
103499.997777
103499.997777
103499.997777
103499.997777
103499.997777
103499.997778
103499.997778
103499.997779
103499.99778
103499.997781
103499.997782
103499.997783
103499.997784
103499.997785
103499.997786
103499.997788
103499.997789
103499.997791
103499.997792
103499.997794
103499.997795
103499.997797
103499.997799
103499.9978
103499.997802
103499.997803
103499.997805
103499.997806
103499.997808
103499.997809
103499.99781
103499.997812
103499.997813
103499.997814
103499.997815
103499.997815
103499.997816
103499.997817
103499.997817
103499.997817
103499.997817
103499.997817
103499.997817
103499.997817
103499.997817
103499.997818
103499.997818
103499.997818
103499.997818
103499.997819
103499.99782
103499.997821
103499.997823
103499.997826
103499.997829
103499.997834
103499.997839
103499.997845
103499.997853
103499.997863
103499.997874
103499.997887
103499.997903
103499.99792
103499.997941
103499.997963
103499.997988
103499.998015
103499.998044
103499.998072
103499.998098
103499.998118
103499.998128
103499.99812
103499.998084
103499.998009
103499.997885
103499.997784
103499.99778
103499.997778
103499.997778
103499.997777
103499.997777
103499.997777
103499.997777
103499.997777
103499.997778
103499.997778
103499.997779
103499.99778
103499.997781
103499.997781
103499.997783
103499.997784
103499.997785
103499.997786
103499.997788
103499.997789
103499.99779
103499.997792
103499.997794
103499.997795
103499.997797
103499.997798
103499.9978
103499.997802
103499.997803
103499.997805
103499.997806
103499.997808
103499.997809
103499.99781
103499.997811
103499.997813
103499.997814
103499.997814
103499.997815
103499.997816
103499.997816
103499.997817
103499.997817
103499.997817
103499.997817
103499.997817
103499.997817
103499.997817
103499.997816
103499.997816
103499.997816
103499.997816
103499.997817
103499.997817
103499.997818
103499.997819
103499.997821
103499.997823
103499.997827
103499.997831
103499.997835
103499.997841
103499.997848
103499.997857
103499.997866
103499.997877
103499.99789
103499.997904
103499.997919
103499.997934
103499.99795
103499.997964
103499.997976
103499.997983
103499.997983
103499.99797
103499.997941
103499.997889
103499.997809
103499.997697
103499.997782
103499.997779
103499.997778
103499.997777
103499.997777
103499.997777
103499.997777
103499.997777
103499.997777
103499.997777
103499.997778
103499.997779
103499.997779
103499.99778
103499.997781
103499.997782
103499.997783
103499.997785
103499.997786
103499.997787
103499.997789
103499.99779
103499.997792
103499.997793
103499.997795
103499.997796
103499.997798
103499.9978
103499.997801
103499.997803
103499.997804
103499.997806
103499.997807
103499.997809
103499.99781
103499.997811
103499.997812
103499.997813
103499.997814
103499.997815
103499.997815
103499.997816
103499.997816
103499.997816
103499.997816
103499.997816
103499.997816
103499.997816
103499.997815
103499.997815
103499.997815
103499.997814
103499.997814
103499.997814
103499.997814
103499.997814
103499.997814
103499.997815
103499.997816
103499.997818
103499.99782
103499.997823
103499.997827
103499.997831
103499.997836
103499.997842
103499.997848
103499.997855
103499.997862
103499.997869
103499.997875
103499.99788
103499.997882
103499.997881
103499.997873
103499.997856
103499.997829
103499.997787
103499.997729
103499.99765
103499.997551
103499.997781
103499.997779
103499.997778
103499.997777
103499.997777
103499.997776
103499.997776
103499.997776
103499.997777
103499.997777
103499.997778
103499.997778
103499.997779
103499.99778
103499.997781
103499.997782
103499.997783
103499.997784
103499.997786
103499.997787
103499.997788
103499.99779
103499.997791
103499.997793
103499.997795
103499.997796
103499.997798
103499.997799
103499.997801
103499.997802
103499.997804
103499.997806
103499.997807
103499.997808
103499.99781
103499.997811
103499.997812
103499.997813
103499.997814
103499.997814
103499.997815
103499.997815
103499.997815
103499.997816
103499.997815
103499.997815
103499.997815
103499.997814
103499.997814
103499.997813
103499.997812
103499.997812
103499.997811
103499.99781
103499.997809
103499.997809
103499.997808
103499.997808
103499.997808
103499.997808
103499.997808
103499.997809
103499.99781
103499.997811
103499.997813
103499.997814
103499.997816
103499.997817
103499.997818
103499.997817
103499.997815
103499.99781
103499.997802
103499.997789
103499.99777
103499.997743
103499.997706
103499.997659
103499.997598
103499.997524
103499.997437
103499.99778
103499.997778
103499.997777
103499.997777
103499.997776
103499.997776
103499.997776
103499.997776
103499.997776
103499.997777
103499.997777
103499.997778
103499.997779
103499.99778
103499.997781
103499.997782
103499.997783
103499.997784
103499.997785
103499.997787
103499.997788
103499.99779
103499.997791
103499.997793
103499.997794
103499.997796
103499.997797
103499.997799
103499.997801
103499.997802
103499.997804
103499.997805
103499.997807
103499.997808
103499.997809
103499.99781
103499.997811
103499.997812
103499.997813
103499.997814
103499.997814
103499.997815
103499.997815
103499.997815
103499.997814
103499.997814
103499.997814
103499.997813
103499.997812
103499.997811
103499.99781
103499.997809
103499.997807
103499.997806
103499.997804
103499.997803
103499.997801
103499.9978
103499.997798
103499.997796
103499.997795
103499.997793
103499.997791
103499.997789
103499.997787
103499.997785
103499.997781
103499.997777
103499.997772
103499.997764
103499.997755
103499.997742
103499.997725
103499.997704
103499.997677
103499.997643
103499.997602
103499.997551
103499.997492
103499.997423
103499.997346
103499.997778
103499.997777
103499.997776
103499.997776
103499.997776
103499.997776
103499.997776
103499.997776
103499.997776
103499.997777
103499.997777
103499.997778
103499.997778
103499.997779
103499.99778
103499.997781
103499.997782
103499.997784
103499.997785
103499.997786
103499.997788
103499.997789
103499.997791
103499.997792
103499.997794
103499.997795
103499.997797
103499.997798
103499.9978
103499.997802
103499.997803
103499.997805
103499.997806
103499.997807
103499.997809
103499.99781
103499.997811
103499.997812
103499.997812
103499.997813
103499.997813
103499.997814
103499.997814
103499.997814
103499.997813
103499.997813
103499.997812
103499.997811
103499.99781
103499.997808
103499.997807
103499.997805
103499.997803
103499.997801
103499.997798
103499.997796
103499.997793
103499.99779
103499.997787
103499.997784
103499.99778
103499.997776
103499.997771
103499.997766
103499.99776
103499.997754
103499.997746
103499.997737
103499.997726
103499.997713
103499.997697
103499.997678
103499.997655
103499.997628
103499.997596
103499.997558
103499.997514
103499.997464
103499.997407
103499.997343
103499.997274
103499.997777
103499.997776
103499.997776
103499.997775
103499.997775
103499.997775
103499.997775
103499.997775
103499.997776
103499.997776
103499.997777
103499.997777
103499.997778
103499.997779
103499.99778
103499.997781
103499.997782
103499.997783
103499.997784
103499.997786
103499.997787
103499.997789
103499.99779
103499.997792
103499.997793
103499.997795
103499.997796
103499.997798
103499.997799
103499.997801
103499.997802
103499.997804
103499.997805
103499.997807
103499.997808
103499.997809
103499.99781
103499.997811
103499.997812
103499.997812
103499.997812
103499.997813
103499.997813
103499.997812
103499.997812
103499.997811
103499.99781
103499.997809
103499.997807
103499.997805
103499.997803
103499.997801
103499.997798
103499.997795
103499.997792
103499.997788
103499.997784
103499.99778
103499.997775
103499.99777
103499.997764
103499.997757
103499.99775
103499.997742
103499.997733
103499.997722
103499.997711
103499.997697
103499.997682
103499.997664
103499.997643
103499.99762
103499.997593
103499.997562
103499.997527
103499.997487
103499.997442
103499.997393
103499.997339
103499.99728
103499.997218
103499.997776
103499.997775
103499.997775
103499.997774
103499.997774
103499.997774
103499.997774
103499.997775
103499.997775
103499.997775
103499.997776
103499.997777
103499.997777
103499.997778
103499.997779
103499.99778
103499.997781
103499.997783
103499.997784
103499.997785
103499.997786
103499.997788
103499.997789
103499.997791
103499.997792
103499.997794
103499.997795
103499.997797
103499.997799
103499.9978
103499.997802
103499.997803
103499.997804
103499.997806
103499.997807
103499.997808
103499.997809
103499.99781
103499.99781
103499.997811
103499.997811
103499.997811
103499.997811
103499.997811
103499.99781
103499.997809
103499.997808
103499.997806
103499.997804
103499.997802
103499.997799
103499.997796
103499.997793
103499.997789
103499.997785
103499.99778
103499.997775
103499.997769
103499.997762
103499.997755
103499.997747
103499.997739
103499.997729
103499.997718
103499.997706
103499.997692
103499.997677
103499.99766
103499.997641
103499.99762
103499.997596
103499.997569
103499.997539
103499.997506
103499.997469
103499.997429
103499.997385
103499.997338
103499.997287
103499.997233
103499.997176
103499.997775
103499.997774
103499.997774
103499.997774
103499.997774
103499.997774
103499.997774
103499.997774
103499.997774
103499.997775
103499.997775
103499.997776
103499.997777
103499.997778
103499.997779
103499.99778
103499.997781
103499.997782
103499.997783
103499.997784
103499.997786
103499.997787
103499.997789
103499.99779
103499.997792
103499.997793
103499.997795
103499.997796
103499.997798
103499.997799
103499.997801
103499.997802
103499.997803
103499.997805
103499.997806
103499.997807
103499.997808
103499.997809
103499.997809
103499.997809
103499.99781
103499.99781
103499.997809
103499.997809
103499.997808
103499.997807
103499.997805
103499.997803
103499.997801
103499.997798
103499.997795
103499.997791
103499.997787
103499.997782
103499.997777
103499.997771
103499.997765
103499.997757
103499.997749
103499.997741
103499.997731
103499.99772
103499.997708
103499.997695
103499.99768
103499.997664
103499.997646
103499.997627
103499.997605
103499.997581
103499.997555
103499.997526
103499.997495
103499.997461
103499.997424
103499.997384
103499.997342
103499.997297
103499.997249
103499.997199
103499.997147
103499.997773
103499.997773
103499.997773
103499.997773
103499.997773
103499.997773
103499.997773
103499.997773
103499.997774
103499.997774
103499.997775
103499.997775
103499.997776
103499.997777
103499.997778
103499.997779
103499.99778
103499.997781
103499.997782
103499.997783
103499.997785
103499.997786
103499.997788
103499.997789
103499.99779
103499.997792
103499.997793
103499.997795
103499.997796
103499.997798
103499.997799
103499.997801
103499.997802
103499.997803
103499.997804
103499.997805
103499.997806
103499.997807
103499.997808
103499.997808
103499.997808
103499.997808
103499.997807
103499.997806
103499.997805
103499.997804
103499.997802
103499.9978
103499.997797
103499.997794
103499.99779
103499.997786
103499.997781
103499.997775
103499.997769
103499.997762
103499.997755
103499.997746
103499.997737
103499.997726
103499.997715
103499.997702
103499.997689
103499.997674
103499.997657
103499.997639
103499.997619
103499.997598
103499.997574
103499.997549
103499.997521
103499.997492
103499.99746
103499.997426
103499.99739
103499.997351
103499.997311
103499.997268
103499.997224
103499.997178
103499.99713
103499.997772
103499.997772
103499.997772
103499.997771
103499.997772
103499.997772
103499.997772
103499.997772
103499.997773
103499.997773
103499.997774
103499.997774
103499.997775
103499.997776
103499.997777
103499.997778
103499.997779
103499.99778
103499.997781
103499.997782
103499.997784
103499.997785
103499.997786
103499.997788
103499.997789
103499.997791
103499.997792
103499.997794
103499.997795
103499.997797
103499.997798
103499.997799
103499.997801
103499.997802
103499.997803
103499.997804
103499.997805
103499.997805
103499.997806
103499.997806
103499.997806
103499.997805
103499.997805
103499.997804
103499.997802
103499.997801
103499.997798
103499.997796
103499.997793
103499.997789
103499.997785
103499.99778
103499.997774
103499.997768
103499.997761
103499.997753
103499.997745
103499.997735
103499.997725
103499.997713
103499.9977
103499.997687
103499.997671
103499.997655
103499.997637
103499.997618
103499.997597
103499.997574
103499.99755
103499.997524
103499.997496
103499.997466
103499.997435
103499.997401
103499.997366
103499.99733
103499.997291
103499.997252
103499.997211
103499.997168
103499.997125
103499.997771
103499.99777
103499.99777
103499.99777
103499.99777
103499.997771
103499.997771
103499.997771
103499.997772
103499.997772
103499.997773
103499.997773
103499.997774
103499.997775
103499.997776
103499.997777
103499.997778
103499.997779
103499.99778
103499.997781
103499.997782
103499.997784
103499.997785
103499.997786
103499.997788
103499.997789
103499.997791
103499.997792
103499.997794
103499.997795
103499.997796
103499.997798
103499.997799
103499.9978
103499.997801
103499.997802
103499.997802
103499.997803
103499.997803
103499.997803
103499.997803
103499.997803
103499.997802
103499.997801
103499.997799
103499.997797
103499.997795
103499.997792
103499.997788
103499.997784
103499.997779
103499.997774
103499.997768
103499.997761
103499.997753
103499.997745
103499.997735
103499.997725
103499.997714
103499.997701
103499.997688
103499.997673
103499.997657
103499.997639
103499.997621
103499.997601
103499.997579
103499.997556
103499.997532
103499.997506
103499.997478
103499.997449
103499.997419
103499.997387
103499.997353
103499.997319
103499.997283
103499.997246
103499.997208
103499.99717
103499.99713
103499.997769
103499.997769
103499.997769
103499.997769
103499.997769
103499.997769
103499.99777
103499.99777
103499.99777
103499.997771
103499.997771
103499.997772
103499.997773
103499.997773
103499.997774
103499.997775
103499.997776
103499.997777
103499.997778
103499.99778
103499.997781
103499.997782
103499.997783
103499.997785
103499.997786
103499.997787
103499.997789
103499.99779
103499.997792
103499.997793
103499.997794
103499.997795
103499.997797
103499.997798
103499.997799
103499.997799
103499.9978
103499.9978
103499.997801
103499.997801
103499.9978
103499.9978
103499.997799
103499.997797
103499.997795
103499.997793
103499.99779
103499.997787
103499.997783
103499.997779
103499.997774
103499.997768
103499.997761
103499.997754
103499.997746
103499.997737
103499.997727
103499.997716
103499.997704
103499.997691
103499.997677
103499.997662
103499.997645
103499.997628
103499.997609
103499.997589
103499.997567
103499.997544
103499.99752
103499.997495
103499.997468
103499.997441
103499.997412
103499.997381
103499.99735
103499.997318
103499.997285
103499.997251
103499.997216
103499.997181
103499.997145
103499.997767
103499.997767
103499.997767
103499.997767
103499.997768
103499.997768
103499.997768
103499.997768
103499.997769
103499.997769
103499.99777
103499.997771
103499.997771
103499.997772
103499.997773
103499.997774
103499.997775
103499.997776
103499.997777
103499.997778
103499.997779
103499.99778
103499.997781
103499.997783
103499.997784
103499.997785
103499.997787
103499.997788
103499.997789
103499.997791
103499.997792
103499.997793
103499.997794
103499.997795
103499.997796
103499.997797
103499.997797
103499.997797
103499.997798
103499.997797
103499.997797
103499.997796
103499.997795
103499.997793
103499.997791
103499.997789
103499.997786
103499.997782
103499.997778
103499.997774
103499.997768
103499.997762
103499.997755
103499.997748
103499.997739
103499.99773
103499.99772
103499.997708
103499.997696
103499.997683
103499.997669
103499.997653
103499.997637
103499.997619
103499.997601
103499.997581
103499.99756
103499.997538
103499.997515
103499.997491
103499.997466
103499.99744
103499.997413
103499.997385
103499.997356
103499.997326
103499.997296
103499.997265
103499.997233
103499.997201
103499.997169
103499.997766
103499.997766
103499.997765
103499.997766
103499.997766
103499.997766
103499.997766
103499.997767
103499.997767
103499.997768
103499.997768
103499.997769
103499.997769
103499.99777
103499.997771
103499.997772
103499.997773
103499.997774
103499.997775
103499.997776
103499.997777
103499.997778
103499.997779
103499.997781
103499.997782
103499.997783
103499.997784
103499.997785
103499.997787
103499.997788
103499.997789
103499.99779
103499.997791
103499.997792
103499.997793
103499.997793
103499.997794
103499.997794
103499.997794
103499.997794
103499.997793
103499.997792
103499.997791
103499.997789
103499.997787
103499.997784
103499.997781
103499.997778
103499.997773
103499.997768
103499.997763
103499.997757
103499.99775
103499.997742
103499.997733
103499.997724
103499.997713
103499.997702
103499.99769
103499.997677
103499.997663
103499.997648
103499.997632
103499.997615
103499.997597
103499.997578
103499.997559
103499.997538
103499.997516
103499.997494
103499.99747
103499.997446
103499.997421
103499.997395
103499.997369
103499.997342
103499.997315
103499.997287
103499.997258
103499.99723
103499.997201
103499.997763
103499.997763
103499.997763
103499.997764
103499.997764
103499.997764
103499.997764
103499.997765
103499.997765
103499.997766
103499.997766
103499.997767
103499.997767
103499.997768
103499.997769
103499.99777
103499.997771
103499.997772
103499.997772
103499.997773
103499.997775
103499.997776
103499.997777
103499.997778
103499.997779
103499.99778
103499.997781
103499.997782
103499.997784
103499.997785
103499.997786
103499.997787
103499.997788
103499.997788
103499.997789
103499.997789
103499.99779
103499.99779
103499.99779
103499.997789
103499.997789
103499.997787
103499.997786
103499.997784
103499.997782
103499.997779
103499.997776
103499.997772
103499.997768
103499.997763
103499.997757
103499.997751
103499.997744
103499.997736
103499.997728
103499.997719
103499.997709
103499.997698
103499.997686
103499.997673
103499.99766
103499.997646
103499.997631
103499.997615
103499.997598
103499.99758
103499.997562
103499.997542
103499.997522
103499.997502
103499.99748
103499.997458
103499.997436
103499.997412
103499.997389
103499.997365
103499.99734
103499.997315
103499.99729
103499.997264
103499.997239
103499.997761
103499.997761
103499.997761
103499.997761
103499.997762
103499.997762
103499.997762
103499.997763
103499.997763
103499.997763
103499.997764
103499.997765
103499.997765
103499.997766
103499.997767
103499.997767
103499.997768
103499.997769
103499.99777
103499.997771
103499.997772
103499.997773
103499.997774
103499.997775
103499.997776
103499.997777
103499.997778
103499.997779
103499.99778
103499.997781
103499.997782
103499.997783
103499.997784
103499.997784
103499.997785
103499.997785
103499.997785
103499.997785
103499.997785
103499.997784
103499.997784
103499.997782
103499.997781
103499.997779
103499.997777
103499.997774
103499.997771
103499.997767
103499.997763
103499.997758
103499.997752
103499.997746
103499.997739
103499.997732
103499.997724
103499.997715
103499.997705
103499.997695
103499.997684
103499.997672
103499.997659
103499.997646
103499.997632
103499.997617
103499.997602
103499.997585
103499.997568
103499.997551
103499.997533
103499.997514
103499.997495
103499.997475
103499.997455
103499.997435
103499.997414
103499.997392
103499.997371
103499.997349
103499.997326
103499.997304
103499.997282
103499.997759
103499.997759
103499.997759
103499.997759
103499.997759
103499.997759
103499.99776
103499.99776
103499.997761
103499.997761
103499.997761
103499.997762
103499.997763
103499.997763
103499.997764
103499.997765
103499.997765
103499.997766
103499.997767
103499.997768
103499.997769
103499.997769
103499.99777
103499.997771
103499.997772
103499.997773
103499.997774
103499.997775
103499.997776
103499.997777
103499.997778
103499.997778
103499.997779
103499.997779
103499.99778
103499.99778
103499.99778
103499.99778
103499.997779
103499.997779
103499.997778
103499.997777
103499.997775
103499.997773
103499.997771
103499.997768
103499.997765
103499.997761
103499.997757
103499.997752
103499.997747
103499.997741
103499.997734
103499.997727
103499.99772
103499.997711
103499.997702
103499.997693
103499.997683
103499.997672
103499.99766
103499.997648
103499.997635
103499.997622
103499.997608
103499.997594
103499.997579
103499.997563
103499.997547
103499.99753
103499.997513
103499.997496
103499.997478
103499.99746
103499.997442
103499.997423
103499.997405
103499.997386
103499.997366
103499.997347
103499.997327
103499.997756
103499.997756
103499.997756
103499.997756
103499.997756
103499.997757
103499.997757
103499.997757
103499.997758
103499.997758
103499.997759
103499.997759
103499.99776
103499.99776
103499.997761
103499.997761
103499.997762
103499.997763
103499.997763
103499.997764
103499.997765
103499.997766
103499.997767
103499.997767
103499.997768
103499.997769
103499.99777
103499.99777
103499.997771
103499.997772
103499.997773
103499.997773
103499.997774
103499.997774
103499.997774
103499.997774
103499.997774
103499.997774
103499.997773
103499.997773
103499.997772
103499.99777
103499.997769
103499.997767
103499.997764
103499.997762
103499.997758
103499.997755
103499.997751
103499.997746
103499.997741
103499.997736
103499.99773
103499.997723
103499.997716
103499.997709
103499.9977
103499.997692
103499.997682
103499.997673
103499.997662
103499.997651
103499.99764
103499.997628
103499.997616
103499.997603
103499.99759
103499.997576
103499.997562
103499.997548
103499.997533
103499.997518
103499.997503
103499.997488
103499.997472
103499.997456
103499.99744
103499.997424
103499.997408
103499.997391
103499.997375
103499.997752
103499.997753
103499.997753
103499.997753
103499.997753
103499.997753
103499.997754
103499.997754
103499.997754
103499.997755
103499.997755
103499.997756
103499.997756
103499.997757
103499.997757
103499.997758
103499.997758
103499.997759
103499.997759
103499.99776
103499.997761
103499.997761
103499.997762
103499.997763
103499.997763
103499.997764
103499.997765
103499.997765
103499.997766
103499.997766
103499.997767
103499.997767
103499.997767
103499.997768
103499.997768
103499.997768
103499.997767
103499.997767
103499.997766
103499.997765
103499.997764
103499.997763
103499.997761
103499.997759
103499.997757
103499.997755
103499.997752
103499.997748
103499.997744
103499.99774
103499.997736
103499.997731
103499.997725
103499.997719
103499.997713
103499.997706
103499.997699
103499.997691
103499.997683
103499.997674
103499.997665
103499.997656
103499.997646
103499.997635
103499.997625
103499.997614
103499.997602
103499.997591
103499.997579
103499.997567
103499.997554
103499.997541
103499.997529
103499.997515
103499.997502
103499.997489
103499.997475
103499.997462
103499.997448
103499.997434
103499.99742
103499.997749
103499.997749
103499.997749
103499.997749
103499.99775
103499.99775
103499.99775
103499.99775
103499.997751
103499.997751
103499.997752
103499.997752
103499.997752
103499.997753
103499.997753
103499.997754
103499.997754
103499.997755
103499.997755
103499.997756
103499.997756
103499.997757
103499.997757
103499.997758
103499.997758
103499.997759
103499.997759
103499.997759
103499.99776
103499.99776
103499.99776
103499.997761
103499.997761
103499.997761
103499.997761
103499.99776
103499.99776
103499.997759
103499.997759
103499.997758
103499.997757
103499.997755
103499.997753
103499.997752
103499.997749
103499.997747
103499.997744
103499.997741
103499.997737
103499.997733
103499.997729
103499.997725
103499.99772
103499.997714
103499.997709
103499.997703
103499.997696
103499.997689
103499.997682
103499.997675
103499.997667
103499.997659
103499.99765
103499.997642
103499.997633
103499.997623
103499.997614
103499.997604