/*--------------------------------*- C++ -*----------------------------------*\
| =========                 |                                                 |
| \\      /  F ield         | OpenFOAM: The Open Source CFD Toolbox           |
|  \\    /   O peration     | Version:  2112                                  |
|   \\  /    A nd           | Website:  www.openfoam.com                      |
|    \\/     M anipulation  |                                                 |
\*---------------------------------------------------------------------------*/
FoamFile
{
    version     2.0;
    format      ascii;
    arch        "LSB;label=32;scalar=64";
    class       surfaceScalarField;
    location    "0.2";
    object      phi;
}
// * * * * * * * * * * * * * * * * * * * * * * * * * * * * * * * * * * * * * //

dimensions      [1 0 -1 0 0 0 0];

oriented        oriented;

internalField   nonuniform List<scalar> 
23692
(
2.32196307262e-06
5.02567952275e-09
2.31379734607e-06
8.16581561176e-09
2.30628296331e-06
7.51448030113e-09
2.30106582287e-06
5.21721113159e-09
2.29750068162e-06
3.56524418105e-09
2.29451886342e-06
2.9819145394e-09
2.29149761931e-06
3.0213269481e-09
2.2882425851e-06
3.25512730234e-09
2.28476372907e-06
3.47887917544e-09
2.28112434981e-06
3.6394371487e-09
2.2773806311e-06
3.74380838102e-09
2.27356940012e-06
3.81129288777e-09
2.26971154635e-06
3.85792077935e-09
2.2658178923e-06
3.8937748678e-09
2.26189348052e-06
3.9245520401e-09
2.25794023262e-06
3.95346194937e-09
2.25395829716e-06
3.98227085966e-09
2.24994685991e-06
4.01188628671e-09
2.24590476652e-06
4.04279413121e-09
2.24183079715e-06
4.07488645865e-09
2.23772403536e-06
4.1080486515e-09
2.23358404368e-06
4.1416769753e-09
2.2294110513e-06
4.17523799807e-09
2.22520596159e-06
4.20794743883e-09
2.22097044912e-06
4.23913640774e-09
2.21670692057e-06
4.26811676721e-09
2.21241841303e-06
4.29417943278e-09
2.2081086088e-06
4.31677012127e-09
2.20378171451e-06
4.33541485862e-09
2.19944231298e-06
4.34967443265e-09
2.19509520771e-06
4.35941251846e-09
2.19074518132e-06
4.36463418616e-09
2.18639684082e-06
4.36555004987e-09
2.182054412e-06
4.36252092507e-09
2.17772161433e-06
4.35612174663e-09
2.17340149395e-06
4.3470101121e-09
2.16909635769e-06
4.33593877152e-09
2.16480770195e-06
4.32371781115e-09
2.16053613393e-06
4.31123399087e-09
2.15628131454e-06
4.2994382798e-09
2.15204189616e-06
4.2893454148e-09
2.14781559351e-06
4.28184860274e-09
2.14359923472e-06
4.2778304532e-09
2.1393888001e-06
4.27812653724e-09
2.13517957632e-06
4.28342297905e-09
2.13096625489e-06
4.29427424061e-09
2.12674309895e-06
4.3111005994e-09
2.1225040359e-06
4.33418234564e-09
2.11824270626e-06
4.36374702984e-09
2.11395248654e-06
4.40014647446e-09
2.10962636344e-06
4.44361988895e-09
2.10525679896e-06
4.49472775723e-09
2.10083535616e-06
4.55428082479e-09
2.0963523932e-06
4.62351648721e-09
2.09179655496e-06
4.70407250281e-09
2.08715419176e-06
4.79823609049e-09
2.08240859721e-06
4.90900883361e-09
2.07753911239e-06
5.04031278589e-09
2.0725200745e-06
5.19718120285e-09
2.06731938033e-06
5.38595903935e-09
2.0618967805e-06
5.6148082572e-09
2.05620163449e-06
5.8940923892e-09
2.05017001861e-06
6.23709988297e-09
2.04372078969e-06
6.66098995136e-09
2.03675033434e-06
7.18824835246e-09
2.02912531491e-06
7.84857642194e-09
2.02067246696e-06
8.68186242765e-09
2.0111641935e-06
9.74249505497e-09
2.0002975648e-06
1.11057657624e-08
1.98766346588e-06
1.28778531347e-08
1.97270023622e-06
1.52113405372e-08
1.95462275922e-06
1.8329623379e-08
1.93231267736e-06
2.25659989787e-08
1.9041455527e-06
2.84265664479e-08
1.86771633536e-06
3.66919289674e-08
1.81940290985e-06
4.85791969289e-08
1.75367923989e-06
6.59923415688e-08
1.66202084195e-06
9.19298900579e-08
1.53088765954e-06
1.31407506615e-07
1.33747334633e-06
1.93691789334e-07
3.03250723364e-07
1.03450403856e-06
2.48483796269e-06
1.01711833582e-08
2.47627883445e-06
1.67250317961e-08
2.46830001882e-06
1.54933636581e-08
2.46269272739e-06
1.0824624238e-08
2.45881876148e-06
7.4393245732e-09
2.45557409664e-06
6.2266759197e-09
2.45230638084e-06
6.28909805577e-09
2.44880670302e-06
6.75484677229e-09
2.44508038423e-06
7.20533965062e-09
2.44119016311e-06
7.52971928833e-09
2.43719281481e-06
7.74113912798e-09
2.4331257975e-06
7.87834168367e-09
2.42901040642e-06
7.97339482358e-09
2.42485765095e-06
8.04656038828e-09
2.42067262092e-06
8.10971200692e-09
2.41645718196e-06
8.16914460458e-09
2.4122113789e-06
8.22840738169e-09
2.40793428768e-06
8.28955151661e-09
2.40362461092e-06
8.35319939005e-09
2.39928104795e-06
8.41948629718e-09
2.39490258999e-06
8.48784704881e-09
2.39048879537e-06
8.55731654797e-09
2.3860399014e-06
8.62648171682e-09
2.38155689073e-06
8.69402400124e-09
2.37704154271e-06
8.75838531692e-09
2.37249640578e-06
8.81811530828e-09
2.36792471417e-06
8.87193705112e-09
2.36333036359e-06
8.91861216572e-09
2.35871775968e-06
8.9570498125e-09
2.35409172362e-06
8.98666809317e-09
2.34945726986e-06
9.00698997206e-09
2.34481940904e-06
9.01803597897e-09
2.34018295665e-06
9.02032695258e-09
2.33555234108e-06
9.01461267286e-09
2.33093143614e-06
9.00196322227e-09
2.32632342987e-06
8.9837763957e-09
2.3217307383e-06
8.96158941641e-09
2.31715492573e-06
8.93703144389e-09
2.31259666435e-06
8.91194045664e-09
2.30805563827e-06
8.88822594607e-09
2.30353048308e-06
8.86786950651e-09
2.299018857e-06
8.85285545571e-09
2.29451747506e-06
8.84495880163e-09
2.29002217202e-06
8.84582945966e-09
2.28552806397e-06
8.85688117656e-09
2.28102965788e-06
8.8792413498e-09
2.2765209996e-06
8.91378682012e-09
2.27199575534e-06
8.96108392531e-09
2.2674473368e-06
9.02173956908e-09
2.2628688012e-06
9.0962158536e-09
2.25825287706e-06
9.18520423786e-09
2.2535917058e-06
9.28973925276e-09
2.24887655199e-06
9.41150418264e-09
2.24409742258e-06
9.55294237804e-09
2.2392425731e-06
9.71743746534e-09
2.23429788131e-06
9.90957223369e-09
2.22924612131e-06
1.01354964767e-08
2.22406606113e-06
1.04030624219e-08
2.21873134444e-06
1.0722359829e-08
2.21320917739e-06
1.11062247037e-08
2.20745856955e-06
1.15709551332e-08
2.2014282007e-06
1.21372217899e-08
2.19505360521e-06
1.28314055989e-08
2.18825353716e-06
1.36874953565e-08
2.18092503286e-06
1.47495972399e-08
2.17293691705e-06
1.60757088623e-08
2.16412072587e-06
1.77429551099e-08
2.15425832918e-06
1.98553441435e-08
2.14306459246e-06
2.25552031568e-08
2.13016288984e-06
2.60402173446e-08
2.11505020462e-06
3.05892802215e-08
2.09704751778e-06
3.66018755798e-08
2.07522930977e-06
4.46578371401e-08
2.04832583936e-06
5.56073858674e-08
2.0145956603e-06
7.07029286121e-08
1.97168241663e-06
9.17764904073e-08
1.91652913957e-06
1.21432704112e-07
1.84558014639e-06
1.63168816266e-07
1.75596780547e-06
2.21312574846e-07
1.65068252308e-06
2.99272560281e-07
3.87130419964e-07
1.56710106744e-06
2.65935994693e-06
1.52065320947e-08
2.65063138991e-06
2.54536299708e-08
2.6422935659e-06
2.38313229759e-08
2.63623772124e-06
1.68806193077e-08
2.63194174799e-06
1.17353837546e-08
2.62833567351e-06
9.83287769572e-09
2.62475593662e-06
9.8689938083e-09
2.62097379515e-06
1.0537106943e-08
2.61697966323e-06
1.11994954351e-08
2.61282793322e-06
1.16814700522e-08
2.6085713673e-06
1.1997789622e-08
2.6042456514e-06
1.22041043512e-08
2.59987129892e-06
1.23478045674e-08
2.59545892789e-06
1.24590764143e-08
2.59101334643e-06
1.25555261897e-08
2.58653617403e-06
1.2646574113e-08
2.58202724307e-06
1.27377767203e-08
2.57748540923e-06
1.28319160557e-08
2.57290923827e-06
1.29301640741e-08
2.56829730306e-06
1.30325216623e-08
2.56364854188e-06
1.31380868028e-08
2.55896248439e-06
1.32452938066e-08
2.5542394175e-06
1.33520977996e-08
2.54948041897e-06
1.34562863944e-08
2.54468738937e-06
1.35555678661e-08
2.53986302129e-06
1.36477050959e-08
2.53501069159e-06
1.37307271353e-08
2.53013443754e-06
1.38028032355e-08
2.52523882944e-06
1.3862413528e-08
2.52032878058e-06
1.39084320213e-08
2.51540941655e-06
1.39403595646e-08
2.51048584493e-06
1.39583065339e-08
2.50556293884e-06
1.39628761357e-08
2.50064519105e-06
1.39553126633e-08
2.49573652248e-06
1.39372723079e-08
2.4908401923e-06
1.39108226314e-08
2.48595869324e-06
1.38782901199e-08
2.48109366407e-06
1.38421257034e-08
2.47624582929e-06
1.38051307581e-08
2.47141491693e-06
1.3770097118e-08
2.46659966846e-06
1.37401660863e-08
2.46179780242e-06
1.37181748978e-08
2.45700611287e-06
1.37068828178e-08
2.45222050527e-06
1.37088018319e-08
2.44743613666e-06
1.37260200453e-08
2.44264756783e-06
1.37603247096e-08
2.43784884909e-06
1.38129464341e-08
2.43303368732e-06
1.38849222554e-08
2.42819545714e-06
1.3977027523e-08
2.42332723561e-06
1.40900316397e-08
2.41842170481e-06
1.42249719552e-08
2.41347095766e-06
1.43834768101e-08
2.40846619865e-06
1.45680585954e-08
2.40339738496e-06
1.47823608078e-08
2.39825272802e-06
1.50314574635e-08
2.39301812675e-06
1.53222615816e-08
2.38767640276e-06
1.56639023162e-08
2.38220653628e-06
1.60681240982e-08
2.37658252734e-06
1.65498867639e-08
2.37077222758e-06
1.71281995779e-08
2.36473574655e-06
1.78270479268e-08
2.35842357908e-06
1.86767084314e-08
2.35177420327e-06
1.97155437144e-08
2.34471103751e-06
2.0992586968e-08
2.3371385705e-06
2.25708859461e-08
2.32893735542e-06
2.45323273118e-08
2.31995755186e-06
2.69843854239e-08
2.31001074176e-06
3.00697229729e-08
2.29885943387e-06
3.39796800401e-08
2.28620414327e-06
3.89739262815e-08
2.27166813292e-06
4.54086596189e-08
2.25478123209e-06
5.37767339312e-08
2.23496714303e-06
6.4764135509e-08
2.21154581726e-06
7.93248767975e-08
2.18377770784e-06
9.87708374053e-08
2.15100794056e-06
1.24849402137e-07
2.11302384877e-06
1.59723024616e-07
2.07084563885e-06
2.05656062082e-07
2.02848398649e-06
2.63985845172e-07
1.99621502182e-06
3.31855380347e-07
3.93201385067e-07
1.99045967383e-06
2.84633174726e-06
1.98983772086e-08
2.83772816839e-06
3.40573190807e-08
2.82915465338e-06
3.24049037e-08
2.82260237629e-06
2.34329948311e-08
2.81776785838e-06
1.65700499493e-08
2.81369348824e-06
1.39073174962e-08
2.80972941822e-06
1.38331393011e-08
2.80562332451e-06
1.46432714404e-08
2.80134010096e-06
1.54827936563e-08
2.79691709636e-06
1.61045981117e-08
2.7923977348e-06
1.65171762995e-08
2.78781310032e-06
1.67887967303e-08
2.78318148109e-06
1.69795054547e-08
2.7785123512e-06
1.71283263876e-08
2.77380982731e-06
1.72581700453e-08
2.76907506436e-06
1.73816416024e-08
2.76430749222e-06
1.75057138824e-08
2.75950569788e-06
1.7634306949e-08
2.75466803884e-06
1.7768649389e-08
2.74979295889e-06
1.79087596627e-08
2.74487934717e-06
1.80532556077e-08
2.73992674661e-06
1.82000051853e-08
2.73493549467e-06
1.83460566615e-08
2.72990680936e-06
1.84884800907e-08
2.72484270338e-06
1.86241009171e-08
2.71974599931e-06
1.87499854251e-08
2.71462018449e-06
1.88634783136e-08
2.70946937629e-06
1.89621592837e-08
2.70429816405e-06
1.90439896053e-08
2.69911146211e-06
1.91076742827e-08
2.69391433979e-06
1.91525213213e-08
2.68871179953e-06
1.9178635728e-08
2.68350864298e-06
1.91869851684e-08
2.6783092753e-06
1.91791904233e-08
2.67311754527e-06
1.91574646382e-08
2.6679366988e-06
1.91244792155e-08
2.66276923829e-06
1.90832986403e-08
2.65761689193e-06
1.90372700417e-08
2.65248043622e-06
1.89899349993e-08
2.64735980189e-06
1.89452029327e-08
2.64225390835e-06
1.89069599078e-08
2.63716077317e-06
1.88790775662e-08
2.63207748798e-06
1.88651671597e-08
2.62700027446e-06
1.88685692183e-08
2.62192467492e-06
1.88921402424e-08
2.61684558278e-06
1.89381323112e-08
2.61175745324e-06
1.90083455629e-08
2.60665432351e-06
1.91040555917e-08
2.60152992483e-06
1.92263529379e-08
2.59637769398e-06
1.93763218653e-08
2.59119063706e-06
1.95553522968e-08
2.58596115356e-06
1.97656034487e-08
2.5806808141e-06
2.00104267117e-08
2.57534000707e-06
2.02945879177e-08
2.56992747698e-06
2.06247802197e-08
2.5644298026e-06
2.10100426794e-08
2.55883072639e-06
2.14622472949e-08
2.55311050808e-06
2.19966845796e-08
2.54724492591e-06
2.26327123897e-08
2.5412043063e-06
2.33947720217e-08
2.53495230721e-06
2.43134793131e-08
2.5284444671e-06
2.54271661327e-08
2.52162655792e-06
2.6784038863e-08
2.51443250703e-06
2.8444862739e-08
2.50678217003e-06
3.04867782791e-08
2.49857865326e-06
3.30083882969e-08
2.48970559892e-06
3.61366922151e-08
2.48002453353e-06
4.00363539951e-08
2.46937323879e-06
4.49224803254e-08
2.45756650407e-06
5.10777714972e-08
2.44440218166e-06
5.8875284867e-08
2.42967820055e-06
6.88079400747e-08
2.41322996616e-06
8.15240672044e-08
2.39500624891e-06
9.78644419874e-08
2.37521191767e-06
1.18884801113e-07
2.35456056991e-06
1.45823801038e-07
2.33468469854e-06
1.79925041105e-07
2.31872800903e-06
2.21941615455e-07
2.31201762055e-06
2.71027381032e-07
2.3217292771e-06
3.22476691658e-07
3.64095118167e-07
2.35116968975e-06
3.04659087571e-06
2.40319693189e-08
3.03840208279e-06
4.22462405683e-08
3.0297365516e-06
4.10705564201e-08
3.02266810775e-06
3.05015688347e-08
3.01719817128e-06
2.20401275947e-08
3.012557587e-06
1.85480364381e-08
3.00813945776e-06
1.82513734865e-08
3.00366822882e-06
1.91145680314e-08
2.99907479612e-06
2.00763148167e-08
2.99437145785e-06
2.08079659659e-08
2.9895870655e-06
2.13016572477e-08
2.98474508186e-06
2.16308656581e-08
2.97985999157e-06
2.18646987789e-08
2.97493925989e-06
2.20491847534e-08
2.96998586725e-06
2.22118228956e-08
2.96500017459e-06
2.23676350687e-08
2.95998109107e-06
2.25252592261e-08
2.95492680261e-06
2.26892309688e-08
2.94983543878e-06
2.28609347958e-08
2.94470529209e-06
2.30401406241e-08
2.93953523817e-06
2.32250128887e-08
2.9343248416e-06
2.3412593985e-08
2.92907454535e-06
2.35992253128e-08
2.92378569522e-06
2.37810640989e-08
2.9184604323e-06
2.39540824699e-08
2.91310167053e-06
2.41147022281e-08
2.9077129517e-06
2.42595589555e-08
2.90229837341e-06
2.43857996306e-08
2.89686243596e-06
2.44909839577e-08
2.89140986448e-06
2.4573564053e-08
2.88594548951e-06
2.46328380649e-08
2.88047406855e-06
2.46690101701e-08
2.87500013367e-06
2.46832476023e-08
2.86952785883e-06
2.46776061924e-08
2.86406089457e-06
2.46547365876e-08
2.85860240564e-06
2.4617960357e-08
2.85315489335e-06
2.45709248784e-08
2.84772012256e-06
2.45176536228e-08
2.84229907465e-06
2.44626148015e-08
2.8368919207e-06
2.44104023041e-08
2.83149801219e-06
2.43657965797e-08
2.82611584339e-06
2.43334741702e-08
2.82074307986e-06
2.43178827418e-08
2.81537660663e-06
2.4323075617e-08
2.81001267667e-06
2.43525893312e-08
2.80464695984e-06
2.44091586959e-08
2.79927465377e-06
2.44950011373e-08
2.79389060939e-06
2.46117855276e-08
2.78848935874e-06
2.47608494726e-08
2.78306511725e-06
2.49435237327e-08
2.77761168126e-06
2.51615889445e-08
2.77212231536e-06
2.54177543111e-08
2.76658950087e-06
2.57160003922e-08
2.76100471611e-06
2.60621641373e-08
2.75535797119e-06
2.64642935808e-08
2.74963744235e-06
2.69332608933e-08
2.74382894567e-06
2.7483248864e-08
2.73791538166e-06
2.81323978398e-08
2.73187607484e-06
2.89036581506e-08
2.72568609651e-06
2.98256430369e-08
2.71931554541e-06
3.0933936331e-08
2.71272877367e-06
3.22726199116e-08
2.70588362458e-06
3.38963344125e-08
2.69873082028e-06
3.58729610158e-08
2.69121360958e-06
3.82871005095e-08
2.68326794201e-06
4.12446344621e-08
2.6748238183e-06
4.48784615561e-08
2.66580858336e-06
4.93559674161e-08
2.65615358874e-06
5.48881851663e-08
2.64580686275e-06
6.17411310466e-08
2.6347555109e-06
7.02488153296e-08
2.62306396214e-06
8.0826783323e-08
2.61093728126e-06
9.39827954315e-08
2.59882152031e-06
1.10316541704e-07
2.5875554253e-06
1.30491154458e-07
2.5785804907e-06
1.55142505422e-07
2.5741871021e-06
1.84665253284e-07
2.57769364018e-06
2.1878448983e-07
2.59325969577e-06
2.55812853244e-07
2.62452509972e-06
2.91564302611e-07
3.18366893746e-07
2.67060713931e-06
3.26098972308e-06
2.74555310236e-08
3.25345588643e-06
4.97801641187e-08
3.24484708597e-06
4.96795435617e-08
3.23728532591e-06
3.80634523884e-08
3.23112606967e-06
2.81995221046e-08
3.2258490071e-06
2.38252892396e-08
3.22092059066e-06
2.31799447425e-08
3.21604832142e-06
2.39869771541e-08
3.21112527653e-06
2.49994407516e-08
3.20613316348e-06
2.58001825557e-08
3.20108193527e-06
2.63529312189e-08
3.19598474588e-06
2.6728141157e-08
3.19085070387e-06
2.69988276803e-08
3.18568438235e-06
2.72156379875e-08
3.18048709098e-06
2.74092823506e-08
3.17525813029e-06
2.75968816326e-08
3.16999569637e-06
2.77881730329e-08
3.16469750541e-06
2.79880777705e-08
3.15936139979e-06
2.81979724989e-08
3.15398555684e-06
2.8417292749e-08
3.14856883079e-06
2.8643481384e-08
3.1431108815e-06
2.88728978125e-08
3.13761225472e-06
2.91009403269e-08
3.13207441619e-06
2.93228578765e-08
3.12649964268e-06
2.9533927638e-08
3.12089086037e-06
2.97298143635e-08
3.11525160286e-06
2.9906711009e-08
3.10958581932e-06
3.00612556726e-08
3.10389776127e-06
3.0190813722e-08
3.09819182176e-06
3.02937425498e-08
3.09247240735e-06
3.03692970438e-08
3.08674384494e-06
3.04177793305e-08
3.08101025499e-06
3.04406271359e-08
3.07527544488e-06
3.04402300998e-08
3.06954282816e-06
3.041967139e-08
3.06381539669e-06
3.03826421105e-08
3.058095631e-06
3.03333419488e-08
3.05238543921e-06
3.02764201927e-08
3.04668605237e-06
3.02169304487e-08
3.0409980953e-06
3.01601724665e-08
3.03532149696e-06
3.01115483519e-08
3.02965549227e-06
3.00764181023e-08
3.02399859654e-06
3.00599029735e-08
3.0183487343e-06
3.00667307648e-08
3.01270321305e-06
3.01008524037e-08
3.00705890486e-06
3.01655758897e-08
3.00141221e-06
3.02634452861e-08
2.99575925416e-06
3.03964389462e-08
2.99009587375e-06
3.05661043171e-08
2.98441758996e-06
3.07740294817e-08
2.97871959359e-06
3.10223062079e-08
2.9729965978e-06
3.13140319555e-08
2.96724277438e-06
3.16537990603e-08
2.96145143527e-06
3.20481317196e-08
2.9556148252e-06
3.25061550595e-08
2.94972384104e-06
3.30400537968e-08
2.94376767136e-06
3.36656482483e-08
2.93773354583e-06
3.44030684842e-08
2.93160629502e-06
3.52775041782e-08
2.92536827678e-06
3.63201503667e-08
2.91899909387e-06
3.7569224439e-08
2.91247568338e-06
3.90714368203e-08
2.90577266754e-06
4.08837570097e-08
2.89886319953e-06
4.30754986905e-08
2.89172060764e-06
4.57310921991e-08
2.88432126704e-06
4.89532569792e-08
2.8766496507e-06
5.28669282369e-08
2.86870610581e-06
5.76234599844e-08
2.86051959862e-06
6.34053587434e-08
2.85216718921e-06
7.04304735563e-08
2.84380373139e-06
7.89550618653e-08
2.83570573805e-06
8.92729706923e-08
2.82833416134e-06
1.01707489536e-07
2.82241978953e-06
1.16588568511e-07
2.81906939237e-06
1.34203207436e-07
2.81987699229e-06
1.54700116861e-07
2.82698967615e-06
1.77920848724e-07
2.8430147232e-06
2.03130246614e-07
2.87055429662e-06
2.28646039626e-07
2.91103143543e-06
2.51461244223e-07
2.67204862903e-07
2.96256820791e-06
3.49041864705e-06
3.01068203611e-08
3.48369620159e-06
5.65027426342e-08
3.4752810166e-06
5.80948297408e-08
3.46729445502e-06
4.60501641228e-08
3.46044879856e-06
3.50453218598e-08
3.45450610221e-06
2.97681325906e-08
3.44903375468e-06
2.86524205067e-08
3.4437345621e-06
2.92862698034e-08
3.43846605403e-06
3.0268076777e-08
3.43317748235e-06
3.10888797422e-08
3.42785742852e-06
3.16731009614e-08
3.42250670388e-06
3.20789384798e-08
3.41712770766e-06
3.23779343847e-08
3.4117212793e-06
3.26222331422e-08
3.40628657825e-06
3.28442416761e-08
3.40082153347e-06
3.30622806934e-08
3.3953234727e-06
3.32867535607e-08
3.38978960369e-06
3.35227107117e-08
3.38421744709e-06
3.3771159351e-08
3.37860508254e-06
3.40310451158e-08
3.3729514042e-06
3.42991007165e-08
3.36725615371e-06
3.45706751959e-08
3.3615200166e-06
3.48403982587e-08
3.3557445601e-06
3.51025010232e-08
3.34993212847e-06
3.535170813e-08
3.34408560863e-06
3.55830823011e-08
3.33820837495e-06
3.57922872028e-08
3.33230411952e-06
3.59757622336e-08
3.32637669359e-06
3.61307740716e-08
3.3204299826e-06
3.62555940807e-08
3.31446782378e-06
3.63495317235e-08
3.30849400021e-06
3.64131010219e-08
3.30251209869e-06
3.6447854042e-08
3.29652551211e-06
3.64564351599e-08
3.29053736861e-06
3.64421960759e-08
3.2845505155e-06
3.64091145587e-08
3.27856746587e-06
3.63617617556e-08
3.27259034616e-06
3.63052049998e-08
3.26662080419e-06
3.62449261272e-08
3.26066006066e-06
3.61866549113e-08
3.25470883234e-06
3.61362902859e-08
3.24876734536e-06
3.60996973952e-08
3.2428352838e-06
3.60824994761e-08
3.23691185628e-06
3.60898234839e-08
3.23099587858e-06
3.61260792562e-08
3.22508576485e-06
3.61948998724e-08
3.2191796057e-06
3.62990722086e-08
3.21327526688e-06
3.64407753613e-08
3.20737042912e-06
3.6621758411e-08
3.20146250876e-06
3.68437417891e-08
3.19554874516e-06
3.71090399636e-08
3.18962607653e-06
3.74209406238e-08
3.1836910918e-06
3.77843289021e-08
3.17773993577e-06
3.82061763855e-08
3.17176813913e-06
3.86961420983e-08
3.1657705581e-06
3.92670536001e-08
3.159741224e-06
3.99354589255e-08
3.15367338669e-06
4.07223216854e-08
3.14755952365e-06
4.16535250115e-08
3.14139162007e-06
4.27606810341e-08
3.135161641e-06
4.40820166994e-08
3.12886244567e-06
4.56633783519e-08
3.12248907989e-06
4.7559403731e-08
3.1160410774e-06
4.98349897887e-08
3.10952566126e-06
5.25667793991e-08
3.10296281513e-06
5.5844827642e-08
3.09639234665e-06
5.97740707317e-08
3.08988446886e-06
6.44755897701e-08
3.08355446545e-06
7.00866794768e-08
3.07758336662e-06
7.67595285488e-08
3.07224581315e-06
8.46566989453e-08
3.06794675314e-06
9.3941797655e-08
3.06526687999e-06
1.0476229776e-07
3.06501442288e-06
1.17220650876e-07
3.06827358461e-06
1.31327824913e-07
3.07642828731e-06
1.46932810059e-07
3.09111754308e-06
1.63622085615e-07
3.11404987182e-06
1.80590880077e-07
3.14657923602e-06
1.96511558341e-07
3.18896201378e-06
2.09474602774e-07
2.17164842766e-07
3.23939878623e-06
3.73583738745e-06
3.20123051866e-08
3.72998861651e-06
6.23516120309e-08
3.72187815865e-06
6.62054001203e-08
3.71357166178e-06
5.43568402727e-08
3.7060979809e-06
4.25191947473e-08
3.69950519933e-06
3.63610960971e-08
3.69348222258e-06
3.46755407517e-08
3.68774346212e-06
3.50251820627e-08
3.68211888872e-06
3.58927640802e-08
3.67652756798e-06
3.66802843515e-08
3.67093641472e-06
3.72643060782e-08
3.66533290139e-06
3.7682542288e-08
3.65971175945e-06
3.79991967053e-08
3.65406942253e-06
3.82647421051e-08
3.64840245465e-06
3.85114333571e-08
3.64270717264e-06
3.87579153388e-08
3.63697991777e-06
3.90144922318e-08
3.63121735571e-06
3.9286036899e-08
3.62541669742e-06
3.95729033496e-08
3.61957595893e-06
3.98732648393e-08
3.61369408284e-06
4.01829695858e-08
3.60777095244e-06
4.0496458896e-08
3.6018073295e-06
4.08074510131e-08
3.59580488702e-06
4.11094438877e-08
3.58976591519e-06
4.1396399465e-08
3.58369314462e-06
4.16629783028e-08
3.5775896799e-06
4.19046340132e-08
3.57145880774e-06
4.21176160717e-08
3.56530380851e-06
4.22990618242e-08
3.5591279664e-06
4.24474750908e-08
3.5529344766e-06
4.25622435933e-08
3.54672647315e-06
4.26439016081e-08
3.54050700911e-06
4.26941719132e-08
3.5342790744e-06
4.27157610996e-08
3.52804557947e-06
4.27121398234e-08
3.52180931597e-06
4.26873918414e-08
3.51557293312e-06
4.26462658432e-08
3.5093389203e-06
4.25940367439e-08
3.50310950455e-06
4.25363275547e-08
3.49688670324e-06
4.24791986405e-08
3.49067222069e-06
4.24287623671e-08
3.48446749796e-06
4.23912000613e-08
3.47827364282e-06
4.237241249e-08
3.47209146287e-06
4.23777547369e-08
3.46592158325e-06
4.24118974746e-08
3.45976433366e-06
4.24785957084e-08
3.45361993789e-06
4.2580823777e-08
3.44748850308e-06
4.27207859292e-08
3.44137005484e-06
4.29002188575e-08
3.43526458182e-06
4.31209330113e-08
3.4291720309e-06
4.33851394531e-08
3.42309234369e-06
4.36961226761e-08
3.41702541938e-06
4.40587139044e-08
3.4109712046e-06
4.44799071419e-08
3.40492963004e-06
4.49692182429e-08
3.39890073699e-06
4.55393184754e-08
3.39288487477e-06
4.62064897002e-08
3.38688288955e-06
4.69910567985e-08
3.38089669253e-06
4.7917844347e-08
3.37492992902e-06
4.90166697736e-08
3.3689890458e-06
5.03229327398e-08
3.36308491635e-06
5.18780455677e-08
3.35723497976e-06
5.37300128014e-08
3.35146636787e-06
5.59339988369e-08
3.34582027512e-06
5.85526173261e-08
3.34035771223e-06
6.16560069208e-08
3.3351675013e-06
6.53213792314e-08
3.33037653046e-06
6.96315730899e-08
3.32616335834e-06
7.46723683209e-08
3.32277492941e-06
8.05274634582e-08
3.32054696779e-06
8.72706335906e-08
3.31992692048e-06
9.4953757209e-08
3.32149729571e-06
1.03589257673e-07
3.32599414106e-06
1.1312599055e-07
3.33431109473e-06
1.2341736458e-07
3.34747222243e-06
1.34181910897e-07
3.36654847483e-06
1.44959200402e-07
3.39248567523e-06
1.55069614069e-07
3.42581718559e-06
1.63597877099e-07
3.46627416609e-06
1.69436722818e-07
1.71443839683e-07
3.51241491158e-06
3.99830153743e-06
3.32646538511e-08
3.99330712662e-06
6.73461971356e-08
3.98557967855e-06
7.39330876772e-08
3.97707662653e-06
6.28600556734e-08
3.96907465292e-06
5.05213759368e-08
3.96188561412e-06
4.35502721728e-08
3.95533111202e-06
4.12302459714e-08
3.94915429843e-06
4.12021438995e-08
3.94316953265e-06
4.18776647921e-08
3.93727143554e-06
4.25784850485e-08
3.93140710417e-06
4.31287625482e-08
3.92555076718e-06
4.3538963706e-08
3.91968907492e-06
4.38610308599e-08
3.91381361402e-06
4.41403514275e-08
3.90791804078e-06
4.44072735013e-08
3.90199686148e-06
4.46794916014e-08
3.89604539268e-06
4.49665707487e-08
3.89005972465e-06
4.52725505178e-08
3.88403680103e-06
4.55969949712e-08
3.87797461225e-06
4.5937052646e-08
3.87187217716e-06
4.62875513035e-08
3.86572949087e-06
4.66420190988e-08
3.8595473819e-06
4.69932548811e-08
3.85332749985e-06
4.73341024769e-08
3.84707196746e-06
4.76579556136e-08
3.84078325493e-06
4.79592786977e-08
3.83446403025e-06
4.82332916687e-08
3.82811700083e-06
4.84761819049e-08
3.82174486207e-06
4.86853152411e-08
3.81535019341e-06
4.88591574403e-08
3.80893552343e-06
4.89972457644e-08
3.80250340861e-06
4.91001889594e-08
3.79605641626e-06
4.916961243e-08
3.7895972723e-06
4.92081413877e-08
3.78312879687e-06
4.92192222779e-08
3.77665390351e-06
4.92068426124e-08
3.77017555559e-06
4.9175647773e-08
3.76369675684e-06
4.91308672953e-08
3.75722056279e-06
4.90782198699e-08
3.75074991028e-06
4.90237043174e-08
3.74428771585e-06
4.89735474579e-08
3.7378368423e-06
4.89339829091e-08
3.7314000329e-06
4.89109258505e-08
3.7249799802e-06
4.89097960754e-08
3.71857935444e-06
4.89352406825e-08
3.71220083364e-06
4.89910139979e-08
3.70584713145e-06
4.90799537163e-08
3.69952104585e-06
4.92041130416e-08
3.69322556859e-06
4.93651219991e-08
3.68696378689e-06
4.95644498696e-08
3.68073910363e-06
4.98040971284e-08
3.67455519888e-06
5.00869606935e-08
3.66841617786e-06
5.04174135371e-08
3.66232663598e-06
5.08018124473e-08
3.65629196095e-06
5.12489350801e-08
3.65031849986e-06
5.17704102779e-08
3.64441404636e-06
5.23810503879e-08
3.63858834035e-06
5.30991161222e-08
3.63285392997e-06
5.39466100069e-08
3.62722732587e-06
5.49494254836e-08
3.62173037547e-06
5.61374591152e-08
3.61639240957e-06
5.7544673098e-08
3.61125283299e-06
5.92089893625e-08
3.60636454385e-06
6.1171965064e-08
3.60179848402e-06
6.34782093278e-08
3.59764914854e-06
6.6174255323e-08
3.59404162284e-06
6.93067213425e-08
3.59113993347e-06
7.29194994139e-08
3.58915674662e-06
7.70496785047e-08
3.58836406357e-06
8.17216004059e-08
3.58910404251e-06
8.69389067598e-08
3.59179817211e-06
9.2674123659e-08
3.59695203166e-06
9.88555373795e-08
3.60515113418e-06
1.05352089566e-07
3.6170411435e-06
1.11957057752e-07
3.63328360665e-06
1.18373048991e-07
3.654477033e-06
1.24202591833e-07
3.68103544983e-06
1.2895067719e-07
3.71302628952e-06
1.32048523349e-07
3.74999589993e-06
1.32910002758e-07
1.31029347133e-07
3.79085402091e-06
4.27897683604e-06
3.39911399509e-08
4.27476066797e-06
7.15624811614e-08
4.26746075747e-06
8.12331520153e-08
4.25888399111e-06
7.14370292178e-08
4.25047495542e-06
5.89306134075e-08
4.2427695373e-06
5.12559534758e-08
4.23572326662e-06
4.82767450963e-08
4.22912301698e-06
4.78025414226e-08
4.2227809418e-06
4.82198744634e-08
4.21657516931e-06
4.8784383167e-08
4.21043648203e-06
4.92675814459e-08
4.2043270851e-06
4.96485063013e-08
4.19822565631e-06
4.99625670861e-08
4.19211882258e-06
5.02473835834e-08
4.18599714403e-06
5.0529273763e-08
4.17985325612e-06
5.082378796e-08
4.17368142144e-06
5.11390348323e-08
4.16747718596e-06
5.14776442671e-08
4.16123726418e-06
5.18381447432e-08
4.15495963452e-06
5.22163490435e-08
4.14864339663e-06
5.26060581372e-08
4.14228858158e-06
5.29997974951e-08
4.13589605197e-06
5.3389704842e-08
4.12946725737e-06
5.37679044615e-08
4.12300404983e-06
5.41275494336e-08
4.11650845886e-06
5.44628814718e-08
4.10998260313e-06
5.47691015048e-08
4.10342857034e-06
5.50424449858e-08
4.09684835655e-06
5.52804066875e-08
4.09024392178e-06
5.54815537332e-08
4.08361723927e-06
5.56454436155e-08
4.07697038397e-06
5.57725813433e-08
4.07030565815e-06
5.58643734588e-08
4.0636257379e-06
5.59232380005e-08
4.05693353988e-06
5.59522008986e-08
4.05023231873e-06
5.59550639345e-08
4.04352558391e-06
5.59362220866e-08
4.03681709975e-06
5.59006479483e-08
4.0301108456e-06
5.58538431797e-08
4.02341093171e-06
5.58016150488e-08
4.0167216422e-06
5.57500760781e-08
4.0100474304e-06
5.57052318066e-08
4.00339291906e-06
5.56728441228e-08
3.99676288739e-06
5.56580751681e-08
3.99016238155e-06
5.56653344239e-08
3.98359671884e-06
5.5698067152e-08
3.97707151143e-06
5.57587204402e-08
3.97059274419e-06
5.58489692743e-08
3.96416676289e-06
5.59699461574e-08
3.95780046055e-06
5.61226862196e-08
3.95150122116e-06
5.63084853261e-08
3.94527712817e-06
5.65295289702e-08
3.93913717569e-06
5.67892753701e-08
3.93309143108e-06
5.70928919005e-08
3.92715145711e-06
5.74476441511e-08
3.92133067025e-06
5.78632055923e-08
3.91564503767e-06
5.83518154868e-08
3.91011384686e-06
5.89283941036e-08
3.90476069528e-06
5.96105313712e-08
3.89961494175e-06
6.04183729948e-08
3.89471330863e-06
6.13743428453e-08
3.8901020624e-06
6.25028559349e-08
3.88583963519e-06
6.38296262793e-08
3.88199987396e-06
6.5380820569e-08
3.87867576041e-06
6.71818029226e-08
3.87598395672e-06
6.92554441533e-08
3.87406969417e-06
7.16197298982e-08
3.87311214537e-06
7.42846345875e-08
3.87332959239e-06
7.72481068721e-08
3.8749837908e-06
8.04909789236e-08
3.8783826126e-06
8.39708503203e-08
3.88387887741e-06
8.76150946535e-08
3.89186412212e-06
9.13134984804e-08
3.90275338961e-06
9.49113413145e-08
3.91695893483e-06
9.82046972529e-08
3.93484920412e-06
1.00940031517e-07
3.95669138095e-06
1.02821116308e-07
3.98257930415e-06
1.03526255708e-07
4.01235516811e-06
1.02738313976e-07
4.04554479993e-06
1.00187583804e-07
9.57034717771e-08
4.08133883792e-06
4.57914142384e-06
3.4325535396e-08
4.57559595323e-06
7.51081321605e-08
4.56873761099e-06
8.80917204038e-08