/*--------------------------------*- C++ -*----------------------------------*\
| =========                 |                                                 |
| \\      /  F ield         | OpenFOAM: The Open Source CFD Toolbox           |
|  \\    /   O peration     | Version:  2112                                  |
|   \\  /    A nd           | Website:  www.openfoam.com                      |
|    \\/     M anipulation  |                                                 |
\*---------------------------------------------------------------------------*/
FoamFile
{
    version     2.0;
    format      ascii;
    arch        "LSB;label=32;scalar=64";
    class       volScalarField;
    location    "0.2";
    object      T;
}
// * * * * * * * * * * * * * * * * * * * * * * * * * * * * * * * * * * * * * //

dimensions      [0 0 0 1 0 0 0];

internalField   nonuniform List<scalar> 
12013
(
299.999993434
299.999980237
299.999967097
299.999954373
299.999942344
299.999931242
299.999921219
299.999912384
299.999904795
299.999898493
299.999893511
299.999889901
299.999887754
299.999887227
299.999888567
299.999892142
299.999898475
299.999908277
299.999922495
299.999942354
299.999969416
300.000005637
300.000053433
300.00011575
300.000196139
300.000298837
300.000428844
300.000592008
300.000795101
300.001045898
300.00135325
300.00172715
300.00217879
300.002720609
300.003366336
300.00413101
300.005031001
300.006084008
300.007309055
300.008726467
300.010357841
300.012226009
300.014354991
300.016769943
300.019497104
300.022563741
300.0259981
300.029829354
300.034087568
300.038803667
300.044009427
300.049737474
300.056021311
300.06289537
300.070395088
300.078557027
300.087419031
300.097020425
300.107402287
300.11860778
300.130682568
300.143675354
300.157638532
300.172629032
300.188709375
300.205949035
300.224426201
300.244230081
300.26546399
300.288249526
300.312732371
300.339090542
300.367546481
300.398385417
300.43198439
300.468860526
300.509756767
300.555807165
300.608887164
300.672440699
300.753680234
299.999993429
299.999980223
299.999967073
299.99995434
299.999942302
299.999931193
299.999921162
299.99991232
299.999904724
299.999898417
299.99989343
299.999889815
299.999887664
299.999887132
299.999888467
299.999892036
299.999898362
299.999908156
299.999922362
299.999942206
299.999969249
300.000005444
300.000053206
300.000115477
300.000195808
300.00029843
300.00042834
300.00059138
300.000794316
300.001044916
300.001352023
300.00172562
300.002176886
300.00271825
300.003363423
300.004127428
300.005026616
300.006078664
300.007302571
300.008718634
300.010348419
300.012214723
300.014341526
300.01675394
300.019478155
300.022541382
300.025971804
300.029798523
300.034051524
300.038761643
300.04396055
300.049680752
300.055955617
300.062819417
300.070307408
300.078455937
300.087302592
300.096886401
300.107248083
300.118430367
300.130478395
300.143440222
300.157367444
300.172315986
300.188347093
300.205528596
300.223936532
300.243657244
300.264790158
300.287451473
300.311779185
300.337940019
300.366139229
300.396634749
300.429758088
300.465945429
300.505783342
300.550071911
300.599888546
300.656523993
300.720641841
299.999993418
299.999980191
299.999967021
299.999954268
299.99994221
299.999931083
299.999921035
299.999912178
299.999904568
299.999898249
299.99989325
299.999889625
299.999887463
299.999886921
299.999888245
299.999891802
299.999898113
299.999907887
299.999922068
299.99994188
299.999968879
300.000005017
300.000052703
300.000114875
300.000195075
300.00029753
300.000427225
300.000589991
300.00079258
300.001042746
300.001349312
300.001722239
300.002172683
300.002713041
300.003356995
300.004119528
300.00501695
300.006066889
300.00728829
300.008701391
300.010327688
300.012189904
300.014311931
300.016718787
300.019436553
300.02249232
300.025914136
300.029730948
300.033972569
300.038669636
300.043853594
300.049556695
300.055812008
300.062653463
300.070115916
300.078235245
300.087048488
300.096594017
300.106911768
300.118043528
300.13003329
300.142927704
300.156776624
300.171633794
300.187557699
300.204612626
300.222869999
300.242410059
300.263324008
300.28571674
300.309710351
300.33544861
300.363102589
300.392877485
300.42502026
300.459825987
300.497635337
300.538801374
300.583569334
300.631732179
300.681766756
299.999993401
299.999980139
299.999966935
299.999954147
299.999942058
299.9999309
299.999920824
299.999911942
299.999904309
299.999897969
299.999892951
299.999889308
299.99988713
299.999886571
299.999887877
299.999891413
299.999897699
299.999907441
299.999921581
299.999941338
299.999968266
300.000004308
300.000051868
300.000113875
300.000193861
300.000296037
300.000425376
300.000587687
300.000789703
300.001039149
300.001344819
300.001716636
300.002165717
300.002704411
300.003346345
300.004106441
300.005000937
300.006047385
300.00726464
300.008672837
300.010293363
300.012148813
300.01426294
300.016660601
300.019367702
300.022411135
300.025818721
300.029619159
300.033841972
300.038517474
300.043676743
300.049351605
300.055574644
300.062379228
300.069799559
300.077870752
300.086628944
300.096111445
300.106356918
300.117405625
300.12929971
300.142083564
300.155804257
300.170512065
300.186261107
300.203110111
300.221123326
300.240371606
300.260933669
300.282897527
300.306362017
300.331438245
300.358250425
300.386934995
300.417635722
300.450490351
300.485599459
300.522958354
300.562318724
300.602941479
300.643245995
299.999993375
299.999980062
299.999966807
299.99995397
299.999941833
299.99993063
299.999920514
299.999911593
299.999903927
299.999897556
299.99989251
299.999888842
299.999886639
299.999886055
299.999887334
299.999890839
299.999897088
299.999906783
299.999920862
299.999940539
299.999967361
300.000003263
300.000050637
300.000112401
300.000192071
300.000293838
300.000422652
300.000584295
300.000785466
300.001033853
300.001338203
300.001708388
300.002155463
300.002691709
300.00333067
300.004087181
300.004977375
300.006018688
300.007229843
300.00863083
300.010242871
300.012088375
300.014190888
300.016575037
300.019266467
300.022291778
300.025678465
300.029454858
300.033650063
300.038293922
300.043416976
300.049050437
300.055226185
300.061976775
300.069335466
300.077336276
300.086014053
300.095404584
300.105544729
300.116472584
300.128227692
300.140851278
300.154386539
300.168878967
300.184376713
300.200930989
300.218596475
300.237431701
300.257499324
300.278866159
300.301602709
300.325781781
300.351475374
300.37874837
300.407646462
300.438174483
300.470259977
300.503695492
300.538053413
300.572580941
300.606132195
299.99999334
299.999979956
299.99996663
299.999953724
299.999941522
299.999930257
299.999920084
299.999911111
299.999903398
299.999896984
299.9998919
299.999888196
299.999885959
299.99988534
299.999886583
299.999890046
299.999896243
299.999905873
299.999919869
299.999939435
299.99996611
300.000001818
300.000048938
300.000110367
300.0001896
300.000290803
300.000418893
300.000579616
300.000779623
300.00102655
300.001329081
300.001697018
300.002141329
300.002674201
300.003309069
300.004060642
300.004944911
300.005979153
300.007181912
300.008572975
300.010173338
300.012005156
300.014091692
300.016457256
300.019127137
300.022127539
300.025485509
300.029228874
300.033386175
300.037986614
300.043060002
300.048636723
300.054747709
300.061424424
300.068698866
300.076603588
300.08517173
300.09443707
300.104434094
300.115198081
300.126765198
300.139172608
300.152458581
300.166662587
300.181825369
300.197988946
300.215196507
300.233492106
300.252920038
300.273523666
300.295343392
300.318413297
300.342755748
300.368372958
300.395233911
300.423254626
300.452270394
300.482001532
300.512018904
300.541722474
300.570363332
299.999993293
299.999979815
299.999966396
299.999953398
299.999941109
299.999929761
299.999919513
299.999910471
299.999902696
299.999896226
299.999891091
299.999887339
299.999885056
299.999884392
299.999885585
299.999888992
299.999895121
299.999904666
299.999918551
299.999937971
299.999964452
299.999999905
300.000046686
300.000107672
300.000186329
300.000286787
300.000413921
300.000573427
300.000771896
300.001016894
300.001317025
300.001681991
300.002122655
300.002651073
300.003280538
300.004025593
300.004902045
300.005926959
300.007118643
300.008496619
300.010081585
300.011895365
300.013960849
300.016301933
300.018943442
300.02191106
300.025231253
300.028931195
300.033038694
300.037582121
300.042590351
300.048092703
300.054118893
300.060698994
300.067863407
300.075642834
300.084068271
300.093170992
300.102982549
300.113534759
300.124859691
300.136989626
300.149956982
300.16379419
300.178533472
300.194206488
300.210843776
300.2284739
300.247122158
300.266808653
300.287545458
300.309332469
300.332151556
300.355958605
300.380673152
300.40616539
300.432240985
300.458626562
300.484962861
300.51081436
300.53570367
299.999993233
299.999979633
299.999966093
299.999952977
299.999940575
299.999929122
299.999918776
299.999909645
299.99990179
299.999895247
299.999890046
299.999886233
299.999883892
299.999883168
299.999884298
299.999887633
299.999893675
299.99990311
299.999916852
299.999936085
299.999962318
299.999997441
300.000043789
300.000104208
300.000182125
300.000281627
300.000407535
300.00056548
300.000761979
300.001004506
300.001301558
300.00166272
300.00209871
300.002621425
300.003243972
300.003980683
300.00484713
300.005860108
300.007037624
300.008398864
300.009964147
300.011754875
300.013793469
300.016103297
300.018708599
300.021634404
300.024906449
300.028551086
300.032595207
300.03706615
300.041991625
300.047399636
300.053318404
300.059776302
300.066801783
300.07442332
300.082669333
300.091568123
300.101147785
300.111436106
300.122460438
300.134247519
300.146823238
300.160212307
300.174437807
300.189520558
300.205478247
300.222324238
300.240065941
300.258702636
300.278222579
300.298599197
300.319786223
300.34171176
300.364271662
300.387323012
300.410678815
300.434105601
300.457327427
300.480040537
300.501939281
299.999993157
299.999979403
299.999965711
299.999952445
299.999939901
299.999928314
299.999917845
299.999908602
299.999900645
299.99989401
299.999888726
299.999884835
299.99988242
299.999881623
299.999882673
299.999885917
299.99989185
299.999901147
299.999914709
299.999933706
299.999959627
299.999994339
300.000040143
300.000099849
300.000176839
300.000275143
300.000399515
300.000555505
300.000749534
300.000988965
300.001282164
300.001638562
300.002068702
300.00258428
300.003198171
300.003924448
300.004778384
300.005776444
300.006936261
300.0082766
300.009817312
300.011579279
300.013584339
300.015855214
300.018415423
300.021289193
300.024501366
300.028077299
300.032042769
300.036423867
300.041246904
300.046538309
300.052324529
300.058631926
300.065486676
300.072914657
300.080941329
300.089591605
300.098889688
300.108858893
300.11952141
300.130898021
300.143007734
300.155867307
300.169490651
300.183888041
300.199065117
300.215021591
300.231749624
300.249231815
300.267438775
300.286326288
300.305832093
300.325872451
300.346338931
300.367096253
300.38798226
300.408810873
300.429378814
300.449477313
300.468908034
299.999993062
299.999979118
299.999965236
299.999951784
299.999939064
299.99992731
299.999916688
299.999907305
299.999899221
299.999892473
299.999887085
299.999883099
299.999880592
299.999879702
299.999880654
299.999883786
299.999889583
299.999898709
299.99991205
299.999930757
299.999956294
299.999990497
300.000035633
300.000094461
300.000170309
300.000267139
300.00038962
300.000543204
300.000734196
300.00096982
300.001258283
300.001608827
300.002031781
300.002538594
300.00314186
300.003855333
300.004693925
300.005673694
300.006811819
300.008126557
300.009637193
300.011363974
300.013328038
300.015551328
300.018056498
300.020866817
300.02400606
300.027498402
300.031368303
300.035640391
300.040339341
300.045489758
300.051116042
300.057242262
300.063892016
300.071088276
300.078853225
300.087208071
300.096172829
300.105766069
300.116004616
300.126903182
300.13847393
300.150725928
300.16366449
300.177290378
300.191598832
300.206578409
300.222209622
300.238463384
300.255299302
300.272663924
300.290489094
300.308690612
300.327167476
300.345802177
300.364462671
300.383006465
300.401286688
300.419160007
300.436495649
299.999992946
299.999978768
299.999964653
299.999950973
299.999938036
299.999926079
299.999915269
299.999905714
299.999897476
299.999890587
299.999885072
299.999880969
299.99987835
299.999877348
299.999878179
299.999881174
299.999886806
299.999895725
299.999908797
299.999927151
299.999952222
299.999985808
300.000030131
300.000087896
300.00016236
300.000257402
300.000377592
300.000528263
300.000715579
300.000946595
300.001229327
300.001572792
300.001987058
300.00248328
300.003073712
300.003771726
300.004591802
300.005549513
300.006661495
300.007945397
300.009419831
300.011104297
300.0130191
300.015185266
300.017624434
300.020358749
300.023410748
300.026803236
300.030559156
300.03470146
300.039252969
300.044236227
300.049673352
300.055585877
300.061994578
300.06891929
300.076378705
300.084390146
300.092969308
300.102129971
300.111883652
300.122239219
300.133202426
300.144775379
300.156955917
300.169736897
300.183105395
300.197041812
300.211518917
300.226500857
300.241942202
300.257787141
300.273968968
300.290410056
300.307022461
300.323709305
300.340367143
300.35688946
300.373171081
300.389113122
300.404627945
299.999992805
299.999978344
299.999963946
299.99994999
299.999936789
299.999924585
299.999913547
299.999903784
299.999895358
299.9998883
299.999882631
299.999878386
299.999875631
299.999874492
299.999875179
299.999878009
299.999883442
299.999892111
299.999904862
299.999922792
299.999947304
299.999980152
300.000023503
300.000079995
300.000152804
300.000245709
300.000363162
300.000510353
300.000693278
300.000918796
300.001194691
300.001529714
300.001933627
300.002417232
300.002992386
300.003672007
300.004470068
300.00540157
300.006482512
300.007729834
300.009161359
300.010795716
300.01265225
300.014750924
300.017112209
300.019756966
300.02270632
300.025981526
300.029603826
300.033594301
300.037973721
300.042762377
300.047979913
300.053645146
300.059775872
300.066388661
300.07349863
300.081119196
300.089261803
300.097935622
300.107147203
300.116900107
300.127194473
300.13802656
300.14938823
300.161266403
300.173642484
300.186491792
300.199783017
300.213477755
300.227530174
300.241886896
300.256487177
300.271263512
300.286142729
300.301047598
300.315898929
300.330618139
300.345130123
300.359366179
300.373266675
299.999992636
299.999977835
299.999963096
299.999948809
299.999935291
299.99992279
299.999911478
299.999901465
299.999892813
299.999885551
299.999879698
299.999875282
299.999872364
299.999871063
299.999871576
299.99987421
299.999879407
299.99988778
299.999900148
299.999917578
299.999941428
299.999973403
300.000015604
300.000070592
300.000141446
300.000231829
300.000346052
300.000489139
300.000666889
300.000885929
300.001153773
300.001478862
300.001870599
300.002339376
300.002896585
300.003554621
300.004326863
300.005227656
300.00627226
300.007476801
300.008858199
300.010434087
300.012222714
300.014242841
300.016513624
300.019054485
300.021884978
300.025024645
300.028492862
300.032308682
300.036490666
300.04105671
300.046023862
300.051408126
300.057224262
300.063485567
300.070203646
300.077388162
300.085046575
300.093183853
300.101802168
300.110900567
300.120474634
300.130516127
300.141012621
300.151947149
300.163297877
300.175037821
300.187134657
300.199550642
300.212242703
300.225162722
300.23825806
300.251472358
300.264746654
300.278020769
300.29123492
300.304331465
300.317256676
300.329962399
300.342407454
299.999992435
299.999977228
299.999962084
299.999947401
299.999933506
299.999920651
299.999909012
299.999898702
299.999889781
299.999882276
299.999876203
299.999871584
299.999868473
299.999866979
299.999867287
299.999869689
299.999874609
299.999882634
299.999894554
299.999911396
299.999934473
299.999965426
300.000006284
300.000059516
300.000128088
300.000215528
300.000325987
300.000464293
300.000636017
300.000847519
300.001106003
300.001419549
300.001797148
300.002248722
300.002785129
300.003418163
300.004160532
300.005025826
300.006028473
300.007183675
300.008507335
300.010015968
300.011726601
300.013656663
300.015823855
300.018246024
300.020941014
300.023926519
300.027219924
300.030838134
300.034797406
300.039113165
300.043799819
300.048870561
300.054337168
300.060209791
300.066496731
300.073204217
300.080336166
300.087893938
300.095876095
300.104278146
300.113092304
300.12230726
300.131907969
300.141875484
300.152186834
300.162814978
300.17372885
300.184893533
300.196270556
300.207818363
300.219492925
300.231248526
300.243038693
300.254817246
300.266539422
300.278163
300.289649358
300.300964339
300.312079251
299.999992197
299.99997651
299.999960887
299.999945736
299.999931395
299.999918121
299.999906096
299.999895434
299.999886194
299.999878403
299.999872071
299.999867212
299.999863874
299.999862153
299.999862221
299.999864352
299.999868948
299.999876569
299.999887969
299.999904132
299.999926312
299.999956085
299.999995392
300.000046596
300.000112536
300.000196585
300.000302706
300.000435509
300.000600302
300.000803142
300.001050877
300.001351178
300.001712569
300.002144439
300.002657045
300.003261504
300.003969766
300.004794581
300.005749445
300.006848535
300.008106628
300.009539012
300.011161374
300.012989693
300.015040102
300.017328758
300.01987169
300.02268465
300.025782947
300.029181282
300.032893573
300.036932778
300.041310712
300.046037858
300.05112318
300.05657393
300.062395452
300.068590991
300.075161501
300.082105456
300.08941868
300.097094175
300.105121989
300.113489099
300.122179336
300.131173367
300.140448722
300.149979908
300.159738595
300.169693897
300.179812756
300.190060425
300.200401039
300.210798271
300.221216034
300.231619228
300.241974471
300.252250758
300.262420377
300.272459212
300.282346784
299.999991917
299.999975668
299.999959482
299.999943782
299.999928916
299.999915151
299.999902672
299.999891596
299.999881983
299.999873856
299.999867219
299.99986208
299.999858476
299.99985649
299.99985628
299.999858098
299.99986232
299.999869477
299.99988028
299.999895663
299.999916819
299.999945242
299.999982777
300.000031668
300.000094608
300.000174795
300.000275981
300.000402527
300.000559447
300.000752455
300.000988001
300.0012733
300.001616351
300.00202595
300.002511685
300.003083922
300.003753777
300.004533073
300.005434285
300.006470473
300.007655192
300.009002402
300.010526361
300.012241499
300.014162296
300.01630314
300.01867818
300.021301177
300.024185341
300.02734317
300.030786287
300.034525265
300.038569462
300.042926851
300.047603854
300.052605178
300.057933653
300.06359009
300.069573136
300.075879153
300.082502111
300.089433508
300.09666232
300.104174979
300.111955409
300.119985091
300.128243201
300.136706791
300.145351043
300.154149574
300.163074813
300.172098424
300.181191772
300.19032642
300.199474634
300.208609863
300.217707418
300.226744809
300.235701709
300.244560418
300.25330603
299.999991591
299.999974685
299.999957843
299.999941503
299.999926025
299.999911686
299.999898678
299.99988712
299.999877072
299.999868553
299.999861561
299.999856096
299.999852184
299.999849892
299.999849361
299.999850819
299.999854616
299.999861243
299.999871369
299.999885869
299.999905865
299.999932764
299.999968301
300.000014585
300.000074147
300.00014999
300.00024563
300.000365152
300.000513244
300.000695239
300.000917147
300.001185679
300.001508258
300.00189303
300.00234885
300.002885267
300.00351249
300.004241342
300.005083201
300.006049929
300.007153783
300.008407323
300.009823302
300.011414544
300.013193821
300.015173717
300.017366482
300.019783894
300.022437099
300.025336465
300.028491428
300.031910341
300.035600322
300.039567116
300.04381495
300.048346412
300.053162328
300.058261662
300.063641429
300.069296628
300.075220202
300.081403022
300.087833901
300.094499651
300.101385166
300.108473557
300.115746319
300.123183546
300.130764184
300.138466316
300.146267483
300.154145022
300.162076419
300.170039662
300.178013659
300.185978693
300.193916314
300.201809686
300.209643818
300.217405679
300.225084249
299.999991213
299.999973547
299.999955945
299.999938862
299.999922675
299.999907671
299.99989405
299.999881933
299.999871381
299.999862407
299.999855005
299.999849164
299.999844897
299.999842255
299.999841357
299.999842407
299.999845722
299.999851754
299.999861119
299.999874631
299.999893332
299.99991853
299.99995184
299.999995224
300.000051033
300.000122053
300.000211545
300.000323289
300.000461616
300.000631445
300.000838308
300.001088366
300.001388423
300.001745921
300.002168929
300.002666123
300.003246746
300.003920559
300.004697785
300.00558903
300.006605201
300.007757411
300.009056869
300.01051477
300.012142167
300.01394985
300.015948206
300.018147089
300.02055568
300.023182349
300.026034528
300.029118572
300.032439643
300.036001593
300.039806856
300.04385636
300.048149448
300.052683819
300.057455486
300.062458759
300.067686251
300.073128913
300.078776088
300.084615608
300.090633908
300.096816177
300.103146534
300.109608231
300.116183876
300.122855674
300.129605678
300.136416044
300.143269282
300.150148682
300.15703836
300.163923294
300.170789642
300.17762486
300.184417794
300.191158723
300.197839365
299.999990778
299.999972236
299.999953758
299.999935821
299.999918818
299.999903049
299.999888721
299.999875961
299.999864827
299.999855331
299.999847458
299.999841186
299.999836512
299.999833471
299.999832159
299.99983275
299.999835526
299.999840895
299.999849417
299.999861836
299.999879108
299.999902435
299.999933298
299.999973499
300.000025195
300.000090938
300.000173712
300.000276967
300.000404653
300.000561243
300.000751757
300.000981775
300.001257437
300.001585443
300.001973036
300.002427973
300.002958489
300.003573245
300.004281271
300.005091886
300.006014625
300.007059136
300.008235088
300.009552059
300.011019422
300.01264623
300.014441091
300.016412054
300.018566481
300.020910937
300.023451077
300.026191535
300.029135837
300.032286307
300.035644001
300.039208643
300.042978586
300.046950789
300.051120809
300.05548282
300.060029649
300.06475284
300.06964273
300.074688561
300.079878598
300.085200277
300.090640366
300.096185134
300.101820539
300.10753241
300.113306642
300.119129367
300.124987362
300.130867833
300.136758649
300.142648507
300.148527025
300.154384805
300.160213475
300.166005702
300.171755181
299.99999028
299.999970736
299.999951257
299.999932342
299.999914405
299.999897759
299.999882623
299.999869126
299.999857328
299.999847236
299.999838824
299.999832061
299.999826926
299.999823436
299.999821658
299.999821739
299.999823919
299.999828558
299.999836158
299.999847386
299.999863104
299.9998844
299.999912613
299.999949374
299.999996632
300.000056689
300.000132235
300.000226373
300.000342648
300.000485064
300.000658107
300.000866744
300.001116428
300.001413091
300.001763118
300.002173327
300.002650922
300.003203449
300.003838731
300.004564805
300.005389836
300.006322037
300.007369573
300.008540464
300.009842481
300.011283043
300.012869115
300.014607097
300.016502733
300.018561006
300.020786059
300.023181106
300.025748367
300.028489009
300.031403099
300.034489579
300.037746244
300.041169751
300.044755634
300.048498345
300.052391305
300.056426977
300.060596955
300.064892066
300.069302483
300.073817852
300.07842743
300.083120215
300.087885093
300.092710975
300.097586941
300.102502554
300.107447587
300.112412309
300.117387573
300.122364877
300.127336422
300.13229514
300.137234712
300.142149562
300.147034846
299.999989715
299.999969031
299.999948413
299.999928386
299.999909386
299.999891744
299.999875688
299.999861354
299.999848801
299.999838031
299.999829009
299.999821691
299.999816038
299.999812043
299.999809749
299.999809267
299.999810796
299.999814644
299.999821248
299.999831196
299.999845251
299.999864378
299.999889769
299.999922872
299.999965419
300.000019454
300.000087358
300.000171874
300.000276126
300.00040364
300.000558346
300.000744589
300.000967121
300.001231092
300.001542027
300.001905797
300.002328581
300.002816816
300.003377145
300.004016345
300.004741263
300.005558733
300.006475493
300.007498104
300.008632854
300.009885674
300.011262049
300.012766933
300.014404668
300.016178911
300.018092567
300.020147729
300.022345636
300.024686634
300.027170157
300.029794712
300.032557891
300.035456382
300.038486011
300.041641779
300.044917928
300.048308011
300.051804972
300.055401237
300.059088814
300.062859394
300.066704454
300.070615365
300.074583493
300.078600307
300.082657624
300.086747372
300.090861821
300.094993644
300.09913597
300.103282424
300.107427149
300.111564823
300.115690665
300.119800422
300.123890356
299.999989075
299.999967105
299.9999452
299.999923917
299.999903716
299.999884947
299.999867852
299.999852572
299.999839166
299.999827631
299.999817923
299.99980998
299.999803748
299.999799194
299.999796332
299.999795236
299.999796063
299.999799065
299.99980461
299.999813205
299.999825509
299.99984236
299.999864797
299.999894082
299.999931723
299.999979498
300.000039474
300.000114028
300.000205862
300.000318012
300.000453856
300.000617115
300.000811844
300.001042418
300.001313515
300.001630081
300.001997297
300.002420533
300.002905296
300.003457172
300.004081763
300.004784619
300.005571166
300.006446635
300.007415983
300.008483825
300.009654364
300.010931318
300.012317866
300.013816591
300.015429428
300.017157634
300.019001756
300.020961613
300.023036289
300.025224139
300.027522807
300.029929249
300.032439772
300.035050082
300.037755342
300.040550232
300.04342902
300.046385639
300.049413763
300.052506883
300.055658391
300.058861655
300.062110086
300.065397352
300.068717162
300.072063454
300.075430443
300.078812658
300.082204972
300.085602624
300.089001233
300.092396799
300.095785712
300.09916473
300.102530977
299.999988357
299.999964942
299.999941592
299.999918898
299.999897348
299.999877315
299.999859053
299.999842711
299.999828348
299.999815955
299.999805478
299.99979684
299.999789965
299.999784796
299.999781315
299.99977956
299.999779638
299.999781748
299.999786188
299.999793377
299.999803871
299.999818381
299.999837787
299.999863166
299.9998958
299.999937202
299.999989127
300.000053588
300.000132868
300.000229524
300.000346392
300.000486585
300.00065348
300.000850709
300.001082136
300.001351827
300.001664019
300.002023078
300.002433457
300.00289964
300.003426095
300.00401721
300.004677237
300.005410233
300.006219999
300.007110026
300.008083436
300.009142935
300.010290768
300.011528684
300.012857898
300.014279076
300.015792315
300.017397141
300.01909251
300.020876825
300.022747949
300.024703243
300.026739594
300.028853464
300.031040936
300.033297767
300.035619444
300.038001242
300.040438283
300.042925593
300.04545816
300.048030986
300.050639234
300.05327809
300.055942881
300.058629113
300.061332508
300.06404902
300.06677486
300.069506499
300.072240683
300.07497443
300.077705024
300.080430017
300.083147205
299.999987556
299.999962529
299.999937566
299.999913297
299.999890242
299.999868797
299.999849233
299.999831706
299.999816276
299.999802928
299.999791597
299.999782189
299.999774607
299.999768767
299.999764619
299.999762161
299.999761455
299.99976264
299.999765944
299.999771703
299.999780365
299.999792514
299.99980888
299.999830351
299.999857992
299.999893055
299.999936994
299.99999147
300.000058362
300.000139768
300.00023801
300.000355621
300.000495343
300.000660111
300.000853029
300.001077351
300.001336448
300.001633773
300.001972825
300.002357105
300.002790073
300.003275101
300.003815425
300.0044141
300.005073956
300.005797549
300.006587129
300.007444599
300.008371486
300.009368917
300.0104376
300.011577811
300.012789391
300.014071747
300.015423859
300.016844298
300.018331246
300.019882524
300.02149562
300.023167729
300.024895791
300.02667653
300.028506499
300.030382121
300.032299733
300.034255627
300.036246086
300.038267476
300.040316203
300.042388732
300.044481645
300.046591663
300.048715665
300.0508507
300.052993998
300.055142977
300.057295244
300.059448596
300.061601019
300.063750676
300.065895905
299.999986668
299.999959852
299.9999331
299.999907085
299.999882361
299.99985935
299.999838341
299.9998195
299.999802887
299.999788483
299.999776209
299.999765955
299.999757601
299.999751035
299.999746175
299.999742978
299.99974146
299.999741702
299.999743864
299.999748195
299.999755045
299.999764872
299.999778259
299.999795918
299.999818705
299.999847626
299.999883848
299.999928703
299.999983693
300.000050492
300.000130942
300.000227048
300.000340969
300.000475006
300.000631582
300.000813221
300.001022524
300.001262141
300.001534737
300.001842962
300.002189413
300.002576602
300.003006914
300.003482578
300.004005632
300.004577891
300.005200919
300.005876007
300.006604151
300.007386039
300.00822204
300.0091122
300.010056239
300.011053564
300.01210327
300.013204162
300.014354772
300.01555338
300.016798042
300.018086615
300.01941679
300.02078612
300.02219205
300.02363195
300.025103146
300.026602941
300.028128662
300.029677696
300.031247434
300.032835336
300.034438953
300.036055934
300.037684043
300.039321161
300.040965298
300.042614593
300.044267313
300.045921857
300.047576751
300.049230643
300.050882297
299.999985689
299.999956901
299.999928177
299.999900237
299.999873672
299.999848934
299.999826332
299.999806043
299.999788127
299.999772561
299.999759253
299.999748074
299.999738883
299.999731539
299.999725925
299.999721962
299.999719616
299.999718914
299.999719948
299.999722889
299.999727988
299.99973559
299.999746137
299.999760179
299.999778378
299.999801514
299.999830494
299.99986635
299.999910243
299.999963464
300.000027427
300.000103668
300.000193833
300.000299665
300.000422992
300.00056571
300.000729759
300.000917104
300.001129708
300.00136951
300.001638395
300.001938168
300.002270531
300.002637054
300.003039155
300.003478077
300.003954869
300.004470372
300.005025209
300.005619771
300.006254217
300.006928475
300.007642238
300.008394979
300.009185955
300.010014221
300.010878647
300.011777935
300.012710639
300.013675182
300.014669882
300.01569297
300.016742615
300.01781694
300.018914046
300.020032029
300.021169037
300.022323195
300.023492673