/*--------------------------------*- C++ -*----------------------------------*\
| =========                 |                                                 |
| \\      /  F ield         | OpenFOAM: The Open Source CFD Toolbox           |
|  \\    /   O peration     | Version:  2112                                  |
|   \\  /    A nd           | Website:  www.openfoam.com                      |
|    \\/     M anipulation  |                                                 |
\*---------------------------------------------------------------------------*/
FoamFile
{
    version     2.0;
    format      ascii;
    arch        "LSB;label=32;scalar=64";
    class       volVectorField;
    location    "0.2";
    object      U;
}
// * * * * * * * * * * * * * * * * * * * * * * * * * * * * * * * * * * * * * //

dimensions      [0 1 -1 0 0 0 0];

internalField   nonuniform List<vector> 
12013
(
(0.0999333110163 2.03855109485e-05 0)
(0.0996270635175 3.37915552193e-05 0)
(0.0992483279349 3.16531793286e-05 0)
(0.0989745057238 2.23462428651e-05 0)
(0.0987990347302 1.55383978041e-05 0)
(0.0986678667268 1.325819125e-05 0)
(0.0985426434356 1.37280396948e-05 0)
(0.0984082802872 1.51121530875e-05 0)
(0.0982629827093 1.64927014063e-05 0)
(0.0981093567119 1.76120239918e-05 0)
(0.0979502333528 1.84893863225e-05 0)
(0.0977876210003 1.92074769454e-05 0)
(0.0976226846448 1.98388989958e-05 0)
(0.0974560600893 2.04309908172e-05 0)
(0.0972880478442 2.10114035248e-05 0)
(0.0971187796674 2.15967550994e-05 0)
(0.096948289205 2.21965292136e-05 0)
(0.0967765574329 2.28162576818e-05 0)
(0.0966035367074 2.34594402042e-05 0)
(0.0964291720955 2.41263181291e-05 0)
(0.0962534178748 2.48171943127e-05 0)
(0.0960762384936 2.55290078102e-05 0)
(0.0958976345109 2.62591092235e-05 0)
(0.0957176297029 2.70027968322e-05 0)
(0.0955362765281 2.77560291866e-05 0)
(0.0953536672538 2.85139709786e-05 0)
(0.0951699187401 2.92714207503e-05 0)
(0.0949851805553 3.00235512375e-05 0)
(0.0947996245651 3.0766071079e-05 0)
(0.0946134439218 3.14946684798e-05 0)
(0.0944268429739 3.22064966193e-05 0)
(0.0942400334292 3.28999927685e-05 0)
(0.0940532240106 3.35752780812e-05 0)
(0.0938666085964 3.42334147376e-05 0)
(0.0936803654296 3.48772641934e-05 0)
(0.0934946447593 3.55106985191e-05 0)
(0.0933095687053 3.61392820334e-05 0)
(0.0931252228695 3.67688058919e-05 0)
(0.0929416570791 3.74070294212e-05 0)
(0.092758885965 3.80621669334e-05 0)
(0.0925768816799 3.87438580374e-05 0)
(0.092395574177 3.94615482018e-05 0)
(0.0922148496253 4.02252785476e-05 0)
(0.0920345578756 4.10457228288e-05 0)
(0.0918545188415 4.19322719986e-05 0)
(0.0916745240477 4.2893413637e-05 0)
(0.091494343726 4.39376718399e-05 0)
(0.0913137316523 4.50722504125e-05 0)
(0.0911324281231 4.6303856814e-05 0)
(0.0909501632162 4.76412283336e-05 0)
(0.0907666530681 4.90926046772e-05 0)
(0.0905815944075 5.06699856114e-05 0)
(0.090394657097 5.23888279093e-05 0)
(0.0902054689703 5.4270537021e-05 0)
(0.0900135945964 5.63433659556e-05 0)
(0.0898185122234 5.86455854008e-05 0)
(0.0896195879588 6.12266100539e-05 0)
(0.0894160398637 6.41510377349e-05 0)
(0.089206894679 6.75034548146e-05 0)
(0.088990937173 7.13920701905e-05 0)
(0.0887666454422 7.59568363435e-05 0)
(0.0885321053822 8.13793842949e-05 0)
(0.0882849016035 8.78974677316e-05 0)
(0.0880219761547 9.58219936819e-05 0)
(0.0877394358584 0.000105565791479 0)
(0.0874322896933 0.00011768457658 0)
(0.0870940865283 0.00013293544624 0)
(0.0867164048864 0.000152364705348 0)
(0.0862881176137 0.000177443500991 0)
(0.0857943201314 0.000210279572951 0)
(0.0852147406475 0.000253948946077 0)
(0.0845213331912 0.000313038699037 0)
(0.0836745676686 0.000394529726573 0)
(0.0826176161352 0.00050926552293 0)
(0.0812672692406 0.000674430470251 0)
(0.0794999521518 0.000917723217114 0)
(0.0771282016193 0.00128459613641 0)
(0.073850693291 0.0018529074671 0)
(0.0691942337389 0.00277829582301 0)
(0.0625885094794 0.00448994537922 0)
(0.0550695589694 0.00890509458722 0)
(0.0999395162756 6.18891179915e-05 0)
(0.0996405393775 0.000103159527288 0)
(0.0992672013483 9.69563242411e-05 0)
(0.0989936309615 6.86891557915e-05 0)
(0.0988159241959 4.79104431417e-05 0)
(0.0986822355779 4.08962997756e-05 0)
(0.0985551908548 4.22725493482e-05 0)
(0.0984198393134 4.64559843756e-05 0)
(0.0982741872056 5.06470294382e-05 0)
(0.0981206078267 5.40522169984e-05 0)
(0.0979617637375 5.67262313343e-05 0)
(0.0977995618391 5.89191537793e-05 0)
(0.0976351118916 6.08500134121e-05 0)
(0.0974690196963 6.26618804587e-05 0)
(0.0973015698794 6.4440432132e-05 0)
(0.0971328849361 6.62340633017e-05 0)
(0.0969629929438 6.80719783366e-05 0)
(0.09679187155 6.99722486367e-05 0)
(0.0966194710983 7.19435908465e-05 0)
(0.0964457353951 7.39887647742e-05 0)
(0.0962706181375 7.61061928513e-05 0)
(0.096094084244 7.82888218505e-05 0)
(0.0959161343716 8.05266148905e-05 0)
(0.0957367925549 8.28074104446e-05 0)
(0.0955561114023 8.51167205585e-05 0)
(0.0953741824199 8.74397834518e-05 0)
(0.0951911218064 8.97617714436e-05 0)
(0.0950070777513 9.20681753502e-05 0)
(0.0948222194828 9.43446050327e-05 0)
(0.0946367362963 9.65794417129e-05 0)
(0.0944508284217 9.87634587266e-05 0)
(0.0942647030184 0.000100891786088 0)
(0.094078564075 0.000102964838714 0)
(0.0938926010841 0.000104986077896 0)
(0.0937069884727 0.000106963923979 0)
(0.0935218731127 0.000108911399244 0)
(0.0933373740739 0.000110844327108 0)
(0.0931535750453 0.000112780732179 0)
(0.0929705258147 0.000114742671363 0)
(0.0927882426768 0.000116755968978 0)
(0.0926067001987 0.000118850471297 0)
(0.0924258316297 0.000121056459248 0)
(0.0922455274466 0.000123403843899 0)
(0.0920656425492 0.00012592286882 0)
(0.0918860029992 0.000128642729598 0)
(0.0917064073861 0.000131591297709 0)
(0.0915266331228 0.000134793449748 0)
(0.0913464410752 0.000138270554201 0)
(0.0911655795197 0.000142045846928 0)
(0.0909837853742 0.000146143430135 0)
(0.0908007818783 0.000150588980677 0)
(0.0906162749247 0.000155417296379 0)
(0.0904299445972 0.000160676749904 0)
(0.0902414305729 0.000166433300248 0)
(0.0900503116085 0.000172772663827 0)
(0.0898560836626 0.000179809087871 0)
(0.0896581350663 0.000187694046042 0)
(0.0894557135122 0.00019662373901 0)
(0.0892478846992 0.000206851655741 0)
(0.0890334856192 0.000218704400785 0)
(0.0888110654154 0.000232605712995 0)
(0.0885788069427 0.000249102673147 0)
(0.0883344275966 0.000268905981737 0)
(0.0880750539524 0.000292947176109 0)
(0.087797054816 0.000322459294981 0)
(0.087495815733 0.000359092173897 0)
(0.0871654343737 0.000405081710215 0)
(0.0867983036746 0.000463502310488 0)
(0.0863845318348 0.000538644955368 0)
(0.0859111248693 0.000636598010906 0)
(0.0853608339373 0.000766157102733 0)
(0.0847105130743 0.000940258856183 0)
(0.0839287674839 0.00117825961523 0)
(0.082972632951 0.00150958177475 0)
(0.0817831275983 0.00197950024775 0)
(0.0802800566082 0.00265803759032 0)
(0.0783561952772 0.00365270071537 0)
(0.075867311733 0.00512530378142 0)
(0.0726498292752 0.00731285002797 0)
(0.0687495383514 0.0104897725097 0)
(0.0654551812246 0.0145299029544 0)
(0.09994726261 0.000103506386273 0)
(0.0996673941509 0.000174926655622 0)
(0.0993079749075 0.000165790057677 0)
(0.0990355174759 0.000118649128012 0)
(0.0988524961033 8.34668761215e-05 0)
(0.0987128552244 7.13028820595e-05 0)
(0.0985816729502 7.33503215509e-05 0)
(0.0984441940648 8.02467886648e-05 0)
(0.0982978521274 8.72469881396e-05 0)
(0.0981444435772 9.29758905269e-05 0)
(0.0979862478527 9.75009302311e-05 0)
(0.0978249542266 0.00010122949711 0)
(0.0976615594055 0.000104523633308 0)
(0.0974966110773 0.000107621333631 0)
(0.097330363571 0.000110666928948 0)
(0.0971629218778 0.000113740683028 0)
(0.096994303939 0.00011689273787 0)
(0.0968244803976 0.000120152829206 0)
(0.0966533981642 0.000123535267271 0)
(0.0964809995376 0.000127045397398 0)
(0.0963072379241 0.00013067908842 0)
(0.0961320791528 0.000134425075599 0)
(0.0959555243627 0.000138265108172 0)
(0.0957775986309 0.000142178684687 0)
(0.0955983553149 0.000146141161984 0)
(0.0954178853338 0.000150127124787 0)
(0.0952363028712 0.000154112216891 0)
(0.0950537519831 0.000158071178162 0)
(0.0948703966578 0.000161979933347 0)
(0.0946864187982 0.000165819035979 0)
(0.0945020095159 0.000169573404017 0)
(0.0943173664305 0.000173235563442 0)
(0.0941326833572 0.000176805297556 0)
(0.093948139866 0.000180289526173 0)
(0.0937639014531 0.000183702013316 0)
(0.0935801077996 0.000187064504777 0)
(0.0933968727383 0.000190403457466 0)
(0.0932142776871 0.000193749623947 0)
(0.0930323722233 0.000197141134872 0)
(0.092851174229 0.00020062077452 0)
(0.0926706630018 0.000204238460982 0)
(0.0924907789757 0.000208044640358 0)
(0.0923114230476 0.000212090450526 0)
(0.0921324630735 0.000216427612919 0)
(0.0919537394367 0.000221105508589 0)
(0.0917750662383 0.000226171011441 0)
(0.0915962364148 0.000231665196831 0)
(0.0914170282752 0.00023762633192 0)
(0.091237207594 0.000244092908617 0)
(0.091056527861 0.000251103728012 0)
(0.0908747300092 0.000258704792881 0)
(0.0906915386792 0.000266955417684 0)
(0.090506653903 0.000275937066843 0)
(0.0903197367153 0.000285758723602 0)
(0.0901303915499 0.000296564808016 0)
(0.0899381477263 0.000308547030929 0)
(0.0897424354405 0.000321958943941 0)
(0.0895425559167 0.000337127661971 0)
(0.0893376460011 0.000354475147172 0)
(0.0891266376593 0.000374545289879 0)
(0.0889082067445 0.000398038367058 0)
(0.0886807067303 0.000425855279519 0)
(0.0884420895392 0.000459160408537 0)
(0.0881898065693 0.000499472925742 0)
(0.0879206810061 0.000548787498581 0)
(0.0876307427519 0.000609749446585 0)
(0.0873150183067 0.000685906116248 0)
(0.0869672614313 0.000782074434732 0)
(0.0865796031985 0.000904874084201 0)
(0.0861421157589 0.00106352565002 0)
(0.0856422856502 0.00127105161967 0)
(0.0850644064656 0.0015460747387 0)
(0.0843889900837 0.00191551816244 0)
(0.0835924499166 0.00241855883631 0)
(0.0826477166371 0.00311215558046 0)
(0.0815273848655 0.00407788478219 0)
(0.080211933255 0.00542777411613 0)
(0.0787059868252 0.00730252902001 0)
(0.0770814535929 0.00984658583908 0)
(0.0756081493272 0.0130844151446 0)
(0.0749919007028 0.0164287161002 0)
(0.0999566398938 0.000143188105768 0)
(0.0997063487069 0.000246898253329 0)
(0.0993691893032 0.000237185273808 0)
(0.0990993186551 0.000172705696553 0)
(0.0989085971514 0.000123251345507 0)
(0.0987600319356 0.000105425384423 0)
(0.0986226190116 0.000107607331751 0)
(0.098481963723 0.00011686315845 0)
(0.0983346346346 0.000126495941292 0)
(0.0981815462669 0.000134487577297 0)
(0.0980243927984 0.000140863979848 0)
(0.0978645332009 0.000146159146348 0)
(0.0977027941467 0.000150862975243 0)
(0.0975396357722 0.000155302201807 0)
(0.0973752665869 0.000159675535885 0)
(0.0972097655988 0.000164096352992 0)
(0.0970431352322 0.000168633862209 0)
(0.0968753359258 0.00017332967724 0)
(0.0967063099359 0.000178203490903 0)
(0.0965359972834 0.000183262207248 0)
(0.0963643512796 0.000188498964663 0)
(0.0961913398265 0.000193897153637 0)
(0.0960169650308 0.000199430134577 0)
(0.0958412537958 0.000205067882984 0)
(0.0956642606992 0.000210775792313 0)
(0.0954860753396 0.000216518186233 0)
(0.0953068089133 0.00022226014714 0)
(0.095126599516 0.000227966250004 0)
(0.0949456024676 0.000233603327718 0)
(0.094763987984 0.00023914424506 0)
(0.0945819339925 0.000244569102658 0)
(0.0943996223658 0.000249867530715 0)
(0.0942172311155 0.000255039253671 0)
(0.0940349254189 0.000260094551198 0)
(0.0938528575417 0.000265053402045 0)
(0.0936711566237 0.000269944842359 0)
(0.0934899283924 0.000274806022985 0)
(0.0933092513568 0.000279680815004 0)
(0.0931291752418 0.000284622411505 0)
(0.0929497217619 0.000289691338264 0)
(0.0927708781017 0.000294955529036 0)
(0.0925925966742 0.000300484915835 0)
(0.0924147964411 0.000306352003906 0)
(0.0922373655917 0.000312630126343 0)
(0.0920601675645 0.000319388748792 0)
(0.0918830417366 0.000326692182848 0)
(0.0917058080215 0.000334598978596 0)
(0.0915282728472 0.00034316393108 0)
(0.0913502299133 0.000352439975595 0)
(0.0911714613306 0.000362482549891 0)
(0.0909917372675 0.000373356646763 0)
(0.0908108126585 0.000385147005731 0)
(0.090628419335 0.00039796736786 0)
(0.0904442539506 0.000411968466997 0)
(0.0902579638004 0.000427351732759 0)
(0.0900691307309 0.000444384767146 0)
(0.0898772497421 0.000463417492484 0)
(0.0896817051754 0.000484902071609 0)
(0.0894817432134 0.000509419465031 0)
(0.0892764389456 0.000537716009365 0)
(0.089064657428 0.000570744990991 0)
(0.0888450056584 0.000609725681917 0)
(0.0886157796455 0.000656225097906 0)
(0.0883748999233 0.00071226704597 0)
(0.088119835068 0.00078048048408 0)
(0.0878475160466 0.000864308032952 0)
(0.0875542420856 0.000968297888046 0)
(0.0872355817134 0.00109850937703 0)
(0.0868862890834 0.0012630879947 0)
(0.0865002751977 0.00147308630332 0)
(0.0860706974279 0.00174361441178 0)
(0.0855903126111 0.00209545052135 0)
(0.085052336305 0.00255722849517 0)
(0.0844522637343 0.00316819659461 0)
(0.0837914434598 0.0039812089017 0)
(0.0830836981957 0.00506453573399 0)
(0.0823666295114 0.00649855735456 0)
(0.0817186164356 0.00835878655786 0)
(0.0812828815515 0.0106689705601 0)
(0.0812930813789 0.0132850110789 0)
(0.0820331295731 0.0156404203461 0)
(0.0999670983525 0.000179107310158 0)
(0.0997538359707 0.000316571611287 0)
(0.0994459180811 0.000309965538956 0)
(0.099180893546 0.000231182941652 0)
(0.0989815157632 0.000168257163444 0)
(0.0988221960022 0.00014422386332 0)
(0.0986771081103 0.000145714361227 0)
(0.0985325207736 0.000156697447257 0)
(0.0983840132242 0.000168595473475 0)
(0.098231418326 0.00017867427294 0)
(0.0980756943749 0.000186838428621 0)
(0.0979177778038 0.000193695286681 0)
(0.0977582745829 0.000199833343382 0)
(0.097597529997 0.000205654779356 0)
(0.0974356923707 0.000211407603884 0)
(0.0972728057941 0.000217234628403 0)
(0.0971088523239 0.000223223003519 0)
(0.0969437796411 0.000229425937901 0)
(0.0967775238652 0.000235866627015 0)
(0.0966100226764 0.0002425528471 0)
(0.0964412298175 0.000249474297089 0)
(0.096271116056 0.000256607791853 0)
(0.0960996852573 0.000263917968247 0)
(0.0959269667805 0.000271365493665 0)
(0.0957530161976 0.000278904478032 0)
(0.0955779210404 0.000286489751757 0)
(0.095401788128 0.000294075686032 0)
(0.0952247470909 0.000301618189849 0)
(0.0950469415821 0.00030907529778 0)
(0.0948685261572 0.000316414122173 0)
(0.0946896600497 0.00032361029361 0)
(0.0945105051167 0.000330650834533 0)
(0.0943312193745 0.000337536292779 0)
(0.0941519493008 0.000344280565679 0)
(0.0939728298797 0.000350908643815 0)
(0.0937939771991 0.00035745710153 0)
(0.0936154885883 0.000363972311824 0)
(0.0934374387428 0.000370510564828 0)
(0.0932598788896 0.000377138753019 0)
(0.0930828365839 0.000383933354658 0)
(0.0929063108441 0.00039097830731 0)
(0.0927302721951 0.000398363101921 0)
(0.0925546631444 0.000406179636567 0)
(0.0923794003671 0.000414520250245 0)
(0.0922043789246 0.0004234735739 0)
(0.0920294736927 0.000433120219962 0)
(0.0918545421507 0.000443536156047 0)
(0.0916794293161 0.000454791038964 0)
(0.0915039689998 0.000466952435466 0)
(0.0913279835686 0.000480091423152 0)
(0.091151284823 0.000494291919092 0)
(0.0909736714647 0.00050966216861 0)
(0.0907949216592 0.000526345067219 0)
(0.0906147842919 0.000544531231216 0)
(0.090432968367 0.00056447464481 0)
(0.0902491296673 0.000586510748826 0)
(0.0900628550494 0.000611075738004 0)
(0.0898736449599 0.000638731983215 0)
(0.089680895032 0.000670199468231 0)
(0.0894838740687 0.000706395184255 0)
(0.0892816998349 0.000748482683311 0)
(0.089073314579 0.000797938085905 0)
(0.0888574599337 0.000856639333277 0)
(0.0886326527353 0.00092698035808 0)
(0.0883971674491 0.00101202694936 0)
(0.0881490324675 0.00111572708152 0)
(0.0878860493744 0.00124318841566 0)
(0.0876058596785 0.00140105035101 0)
(0.0873060974477 0.00159798475436 0)
(0.0869846812964 0.00184535334642 0)
(0.0866403519508 0.00215805351211 0)
(0.086273617825 0.00255557030281 0)
(0.0858883351517 0.00306315819126 0)
(0.0854942907784 0.00371291190986 0)
(0.0851112326148 0.00454402752959 0)
(0.0847747851991 0.00560065479465 0)
(0.0845442480652 0.00692398792353 0)
(0.0845106326833 0.00853271689532 0)
(0.0847998922069 0.0103835705173 0)
(0.0855565527631 0.0123032655231 0)
(0.0868677884641 0.013902264937 0)
(0.0999776199581 0.000209741410735 0)
(0.0998046840294 0.000381646994691 0)
(0.0995306663908 0.000382856686558 0)
(0.0992734399285 0.000294081377578 0)
(0.0990663045559 0.000219177511559 0)
(0.0988960268773 0.000188476014499 0)
(0.0987428077584 0.000188256315343 0)
(0.0985940038094 0.000200106139194 0)
(0.0984442992546 0.000213727401213 0)
(0.0982924007004 0.000225606068203 0)
(0.098138460979 0.000235427808123 0)
(0.0979829379468 0.000243801645255 0)
(0.0978261812768 0.000251374024209 0)
(0.0976683996588 0.000258602670115 0)
(0.0975096680042 0.000265775134877 0)
(0.0973499883211 0.000273058757 0)
(0.0971893186024 0.000280557428676 0)
(0.0970275915741 0.000288332220021 0)
(0.0968647364913 0.00029640951699 0)
(0.0967006891352 0.000304796250242 0)
(0.0965354042238 0.000313477432564 0)
(0.0963688564145 0.000322422471611 0)
(0.0962010521944 0.00033158722472 0)
(0.0960320228904 0.00034092139035 0)
(0.0958618247755 0.000350369312319 0)
(0.09569054204 0.000359875755604 0)
(0.0955182751543 0.000369386058822 0)
(0.0953451428208 0.000378848045513 0)
(0.0951712734763 0.00038821350166 0)
(0.0949968025133 0.000397444455096 0)
(0.0948218672556 0.00040651342823 0)
(0.0946466054502 0.000415406131709 0)
(0.0944711518888 0.000424124103864 0)
(0.0942956318004 0.000432684322357 0)
(0.0941201616513 0.000441116311001 0)
(0.0939448436789 0.000449463075161 0)
(0.0937697657975 0.000457778595156 0)
(0.0935950005243 0.000466129177769 0)
(0.0934206023045 0.000474594094491 0)
(0.0932466075265 0.000483262399172 0)
(0.0930730310865 0.000492232555269 0)
(0.0928998658013 0.000501609689756 0)
(0.0927270833992 0.000511502547339 0)
(0.0925546356184 0.000522020346598 0)
(0.0923824566587 0.000533267107869 0)
(0.0922104649321 0.000545339320673 0)
(0.0920385649106 0.000558326940239 0)
(0.0918666498668 0.000572313730174 0)
(0.0916946038407 0.000587379826567 0)
(0.0915223015616 0.00060361026885 0)
(0.0913496091779 0.000621105944516 0)
(0.0911763821155 0.000639995235239 0)
(0.0910024605733 0.00066044614124 0)
(0.0908276635799 0.000682682542866 0)
(0.0906517812401 0.000707001846878 0)
(0.0904745665287 0.000733794657732 0)
(0.090295724976 0.000763566197886 0)
(0.0901149060638 0.000796964479573 0)
(0.0899316935492 0.000834814646362 0)
(0.0897455961793 0.000878157669075 0)
(0.0895560412287 0.000928302392602 0)
(0.0893623719897 0.000986891522372 0)
(0.0891638529032 0.00105598591181 0)
(0.0889596848369 0.00113817049547 0)
(0.0887490426733 0.0012366954877 0)
(0.0885311412498 0.00135565341903 0)
(0.0883053475055 0.00150020165155 0)
(0.0880713698843 0.00167684175588 0)
(0.0878295609316 0.00189375872689 0)
(0.0875813881595 0.00216121385105 0)
(0.087330161262 0.00249197937599 0)
(0.0870821282019 0.00290173066475 0)
(0.0868480702258 0.00340925902084 0)
(0.0866455504943 0.00403617905909 0)
(0.0865018838709 0.00480549393239 0)
(0.0864576372181 0.00573789187789 0)
(0.086569829327 0.00684386726778 0)
(0.086912592121 0.008109160453 0)
(0.0875706584449 0.00947161093495 0)
(0.0886168217397 0.010791928681 0)
(0.0900599849974 0.0118359522981 0)
(0.0999871306903 0.000234202848254 0)
(0.0998535534982 0.000440447675702 0)
(0.0996153072138 0.00045463099711 0)
(0.0993691368065 0.000361002140803 0)
(0.0991568876609 0.000276244152167 0)
(0.0989771497144 0.000238640310043 0)
(0.0988164523651 0.000235655834084 0)
(0.0986637099319 0.000247385463852 0)
(0.0985130095859 0.000262063707152 0)
(0.0983620510575 0.00027536345894 0)
(0.0982102071417 0.000286651176331 0)
(0.0980574476321 0.00029645823087 0)
(0.0979038497079 0.000305440099054 0)
(0.0977494718279 0.000314084465592 0)
(0.0975943068439 0.000322704585059 0)
(0.0974383092807 0.000331486893532 0)
(0.0972814100515 0.000340547242126 0)
(0.097123526477 0.000349952286999 0)
(0.0969645812479 0.000359728912317 0)
(0.0968045087873 0.000369882041342 0)
(0.0966432659393 0.000380390417274 0)
(0.0964808318756 0.000391215039559 0)
(0.0963172155439 0.000402302452916 0)
(0.0961524502979 0.000413590761566 0)
(0.0959865917079 0.000425016029928 0)
(0.0958197186752 0.000436513571889 0)
(0.0956519229668 0.000448021066273 0)
(0.0954833094375 0.000459479813593 0)
(0.0953139888233 0.000470837856599 0)
(0.0951440746079 0.000482053854771 0)
(0.0949736794785 0.00049309816768 0)
(0.0948029159743 0.000503956454778 0)
(0.0946318945747 0.000514631207214 0)
(0.0944607188656 0.000525142030795 0)
(0.0942894871265 0.000535522035371 0)
(0.0941182887125 0.000545817582055 0)
(0.0939472046151 0.000556089142095 0)
(0.0937763068183 0.000566410874756 0)
(0.0936056556114 0.000576870192236 0)
(0.0934352991398 0.000587565678179 0)
(0.093265271375 0.000598606458002 0)
(0.0930955916082 0.000610109750605 0)
(0.0929262648822 0.000622197364969 0)
(0.09275728198 0.000634991049828 0)
(0.0925886215844 0.000648606667601 0)
(0.0924202518014 0.000663153758953 0)
(0.0922521303455 0.000678732866114 0)
(0.092084206461 0.000695438044228 0)
(0.0919164232177 0.000713359754374 0)
(0.0917487177106 0.000732593730889 0)
(0.0915810218625 0.00075325339772 0)
(0.0914132612326 0.000775481004251 0)
(0.0912453525079 0.000799463190138 0)
(0.0910772013395 0.000825446600021 0)
(0.0909086983943 0.000853758416384 0)
(0.0907397148992 0.000884824930073 0)
(0.090570099664 0.00091919521286 0)
(0.0903996791906 0.000957570202384 0)
(0.0902282570258 0.00100083226985 0)
(0.0900556169125 0.00105008480613 0)
(0.089881533564 0.001106697975 0)
(0.0897057917307 0.00117236748956 0)
(0.0895282148627 0.00124918331744 0)
(0.0893487150631 0.00133971608077 0)
(0.0891673712151 0.00144712222052 0)
(0.088984541644 0.001575265162 0)
(0.0888010326075 0.00172885773315 0)
(0.0886183444902 0.00191361725509 0)
(0.0884390228726 0.00213641499311 0)
(0.0882671561856 0.00240540379312 0)
(0.0881090545585 0.00273006820126 0)
(0.0879741672687 0.0031211045552 0)
(0.0878762615015 0.00358999206895 0)
(0.087834835945 0.00414800383824 0)
(0.0878766478842 0.00480427076492 0)
(0.0880369339406 0.00556235431777 0)
(0.0883594828182 0.00641463659796 0)
(0.088893954052 0.00733404191163 0)
(0.0896879020427 0.00826372630095 0)
(0.0907701399955 0.0091083789854 0)
(0.0921237943596 0.00973703179917 0)
(0.0999948453177 0.000252388990669 0)
(0.0998963323173 0.000492115935121 0)
(0.0996931194301 0.000524238767104 0)
(0.099461037733 0.000431168703182 0)
(0.0992474657383 0.000339167526032 0)
(0.0990611035579 0.000294776517803 0)
(0.0988945502101 0.00028811006597 0)
(0.0987386841246 0.000298733197815 0)
(0.0985874200201 0.000313749334706 0)
(0.0984377007181 0.000328032261959 0)
(0.0982882292303 0.000340547142316 0)
(0.0981385240032 0.000351669758134 0)
(0.097988395772 0.000362013071964 0)
(0.0978377493268 0.000372065247978 0)
(0.0976864911907 0.000382149492972 0)
(0.0975345259938 0.000392463184843 0)
(0.0973817568255 0.000403128296961 0)
(0.0972280860196 0.000414214299116 0)
(0.0970734307362 0.000425745402843 0)
(0.096917725414 0.000437721820085 0)
(0.0967609294609 0.000450115319993 0)
(0.0966030272558 0.000462877017333 0)
(0.0964440299318 0.00047594430674 0)
(0.0962839713854 0.000489244712563 0)
(0.096122904981 0.000502705553081 0)
(0.0959609016079 0.000516255113814 0)
(0.0957980415791 0.000529825122713 0)
(0.0956344137654 0.00054335300418 0)
(0.095470108786 0.000556783742166 0)
(0.0953052166305 0.000570075658077 0)
(0.0951398259076 0.000583198317094 0)
(0.0949740241873 0.000596137809404 0)
(0.0948078988428 0.00060889706278 0)
(0.0946415341654 0.000621496795527 0)
(0.0944750129949 0.000633971671002 0)
(0.0943084156298 0.000646370188617 0)
(0.0941418193071 0.000658756128719 0)
(0.0939752983746 0.000671207640017 0)
(0.0938089217686 0.000683816016772 0)
(0.0936427527878 0.000696686055022 0)
(0.093476847467 0.000709933177691 0)
(0.0933112537004 0.000723682437354 0)
(0.0931460119455 0.000738063333799 0)
(0.0929811543817 0.000753204850155 0)
(0.0928167073212 0.00076923140436 0)
(0.0926526912874 0.000786259563546 0)
(0.0924891210411 0.000804396401051 0)
(0.0923260076864 0.000823741251557 0)
(0.0921633596999 0.000844389656189 0)
(0.0920011846855 0.000866443462752 0)
(0.0918394896204 0.000890020917972 0)
(0.0916782809431 0.000915270122019 0)
(0.091517564791 0.000942384858107 0)
(0.0913573477542 0.000971621714625 0)
(0.0911976359225 0.00100331757116 0)
(0.0910384353651 0.001037909962 0)
(0.0908797575318 0.00107596010304 0)
(0.0907216239546 0.0011181780583 0)
(0.090564075675 0.00116544786003 0)
(0.0904071889708 0.00121886053386 0)
(0.0902510988151 0.00127975301263 0)
(0.0900960328204 0.00134974789758 0)
(0.089942359556 0.00143080254881 0)
(0.0897906592086 0.00152526713308 0)
(0.0896418202926 0.00163594097728 0)
(0.0894971724919 0.0017661323742 0)
(0.0893586696539 0.00191971391238 0)
(0.0892291263739 0.00210115472941 0)
(0.0891125341998 0.00231551287747 0)
(0.0890144687795 0.00256835603822 0)
(0.0889425802486 0.00286555689315 0)
(0.0889071826438 0.00321290298111 0)
(0.0889218942339 0.00361541141164 0)
(0.0890042316163 0.00407623807489 0)
(0.0891759925891 0.00459502534659 0)
(0.0894630746773 0.00516554810117 0)
(0.0898941873379 0.00577261706616 0)
(0.0904976771028 0.00638848735927 0)
(0.0912955016993 0.00696973438035 0)
(0.0922936770031 0.00745680417448 0)
(0.0934705019405 0.00778016057802 0)
(0.100000426283 0.000264850070483 0)
(0.0999308393056 0.000536542971929 0)
(0.0997599724293 0.000590877343397 0)
(0.0995443258997 0.000503548802292 0)
(0.0993335608636 0.000407205692081 0)
(0.0991441223798 0.000356547045426 0)
(0.098973973304 0.000345553192335 0)
(0.0988162081117 0.000354200974557 0)
(0.0986650152076 0.00036885803098 0)
(0.0985168984305 0.000383666883824 0)
(0.0983700592962 0.000397140905766 0)
(0.0982236385388 0.000409435747426 0)
(0.0980772063844 0.000421073012723 0)
(0.0979305212639 0.000432510380357 0)
(0.0977834054514 0.000444064437163 0)
(0.0976357140243 0.000455933544316 0)
(0.0974873230979 0.000468238714987 0)
(0.0973381220335 0.000481047379473 0)
(0.0971880235885 0.000494378987814 0)
(0.0970369637538 0.000508226208063 0)
(0.0968849053273 0.000522551743659 0)
(0.0967318373496 0.000537297534574 0)
(0.0965777723369 0.000552390882569 0)
(0.0964227426107 0.000567750879048 0)
(0.0962667965703 0.000583296255541 0)
(0.0961099949173 0.000598951033224 0)
(0.0959524040514 0.000614643300563 0)
(0.0957940941153 0.000630307848762 0)
(0.0956351353623 0.000645889484627 0)
(0.0954755954773 0.000661347028095 0)
(0.0953155397976 0.000676651133843 0)
(0.0951550345916 0.000691787455631 0)
(0.0949941479453 0.000706758836795 0)
(0.0948329491866 0.000721584463405 0)
(0.0946715110378 0.000736298878504 0)
(0.0945099093672 0.000750949696235 0)
(0.0943482223387 0.000765600096062 0)
(0.0941865298576 0.000780328325287 0)
(0.0940249132793 0.000795226318475 0)
(0.0938634535443 0.000810400276456 0)
(0.0937022300727 0.000825967525879 0)
(0.0935413209298 0.000842055540433 0)
(0.0933808022017 0.000858795803358 0)
(0.0932207485415 0.000876319443414 0)
(0.0930612341998 0.000894753084471 0)
(0.0929023333464 0.00091421393707 0)
(0.0927441202065 0.00093480933583 0)
(0.0925866700694 0.00095663710117 0)
(0.0924300621301 0.000979791586107 0)
(0.0922743795745 0.00100437151179 0)
(0.0921197105078 0.00103049103626 0)
(0.0919661506598 0.00105829301429 0)
(0.0918138047975 0.00108796420132 0)
(0.0916627887911 0.00111975253408 0)
(0.0915132331664 0.00115398144232 0)
(0.0913652893365 0.0011910712547 0)
(0.0912191385088 0.00123155729567 0)
(0.0910750028685 0.00127610886954 0)
(0.0909331616026 0.00132555033513 0)
(0.0907939775492 0.00138088387493 0)
(0.0906579266767 0.00144331337896 0)
(0.0905256401692 0.00151426688119 0)
(0.0903979650443 0.00159542224355 0)
(0.0902760373379 0.00168872921109 0)
(0.0901613781552 0.00179642267017 0)
(0.0900560214132 0.00192102644887 0)
(0.0899626697071 0.00206533223034 0)
(0.0898848829902 0.00223234211375 0)
(0.0898273060991 0.00242516190763 0)
(0.089795927959 0.00264680352677 0)
(0.0897983541943 0.00289988327918 0)
(0.0898440691483 0.0031861688892 0)
(0.0899446323877 0.00350593249974 0)
(0.0901137155156 0.00385709722789 0)
(0.0903668516909 0.00423415732623 0)
(0.0907206932418 0.00462693566681 0)
(0.0911915447215 0.00501933365851 0)
(0.0917929091767 0.00538840620957 0)
(0.0925318720528 0.00570436468276 0)
(0.0934044558449 0.00593242309318 0)
(0.0943911970425 0.00603755306811 0)
(0.100003965012 0.000272527597045 0)
(0.099956726755 0.000574173258488 0)
(0.0998143782825 0.000654029595748 0)
(0.0996165698313 0.000577045527667 0)
(0.099412369506 0.000479340560091 0)
(0.0992234769656 0.000423315977148 0)
(0.0990522455952 0.000407690886737 0)
(0.0988940408158 0.000413697720168 0)
(0.0987437010369 0.000427385148561 0)
(0.0985976116776 0.000442282634469 0)
(0.0984536653751 0.000456440940134 0)
(0.0983107217075 0.000469750241914 0)
(0.098168152172 0.000482599489101 0)
(0.0980255862146 0.000495388744257 0)
(0.0978827690437 0.00050841003605 0)
(0.0977395098426 0.000521850180349 0)
(0.0975956605781 0.000535822805403 0)
(0.0974511003316 0.000550387173686 0)
(0.0973057391306 0.000565556195572 0)
(0.0971595152826 0.000581311559948 0)
(0.0970123951623 0.000597606340012 0)
(0.0968643711461 0.000614372677932 0)
(0.096715455587 0.000631529029112 0)
(0.0965656765556 0.000648986308612 0)
(0.0964150748253 0.00066665816055 0)
(0.0962636987214 0.000684465757824 0)
(0.0961115981701 0.000702335493152 0)
(0.0959588249501 0.000720201535011 0)
(0.0958054293892 0.000738010862193 0)
(0.0956514589957 0.000755722560848 0)
(0.0954969609131 0.00077330850579 0)
(0.0953419849202 0.000790754249713 0)
(0.0951865856853 0.000808059599577 0)
(0.0950308241268 0.000825240793028 0)
(0.0948747689312 0.000842327928609 0)
(0.0947184966526 0.000859365278538 0)
(0.0945620910491 0.00087641183226 0)
(0.0944056419968 0.000893541506849 0)
(0.0942492452552 0.000910843404449 0)
(0.0940930012568 0.000928419475044 0)
(0.0939370140455 0.000946385168402 0)
(0.0937813912945 0.000964863976654 0)
(0.0936262448008 0.000983983623 0)
(0.0934716910283 0.00100387095444 0)
(0.0933178518833 0.00102464714854 0)