/*--------------------------------*- C++ -*----------------------------------*\
| =========                 |                                                 |
| \\      /  F ield         | OpenFOAM: The Open Source CFD Toolbox           |
|  \\    /   O peration     | Version:  2112                                  |
|   \\  /    A nd           | Website:  www.openfoam.com                      |
|    \\/     M anipulation  |                                                 |
\*---------------------------------------------------------------------------*/
FoamFile
{
    version     2.0;
    format      ascii;
    arch        "LSB;label=32;scalar=64";
    class       volScalarField;
    location    "1";
    object      p;
}
// * * * * * * * * * * * * * * * * * * * * * * * * * * * * * * * * * * * * * //

dimensions      [1 -1 -2 0 0 0 0];

internalField   nonuniform List<scalar> 
12013
(
103499.99084
103499.990838
103499.990835
103499.99083
103499.990824
103499.990816
103499.990806
103499.990795
103499.990783
103499.990769
103499.990754
103499.990738
103499.99072
103499.990701
103499.99068
103499.990658
103499.990634
103499.990609
103499.990583
103499.990555
103499.990526
103499.990495
103499.990463
103499.990429
103499.990394
103499.990358
103499.99032
103499.990281
103499.99024
103499.990198
103499.990155
103499.99011
103499.990065
103499.990017
103499.989969
103499.98992
103499.989869
103499.989817
103499.989764
103499.989711
103499.989656
103499.989601
103499.989545
103499.989488
103499.98943
103499.989372
103499.989314
103499.989255
103499.989196
103499.989137
103499.989078
103499.98902
103499.988961
103499.988903
103499.988846
103499.988789
103499.988734
103499.98868
103499.988627
103499.988576
103499.988527
103499.98848
103499.988437
103499.988397
103499.98836
103499.988329
103499.988302
103499.988282
103499.98827
103499.988266
103499.988274
103499.988295
103499.988332
103499.98839
103499.988474
103499.988594
103499.988761
103499.988993
103499.98932
103499.989836
103499.990634
103499.967212
103499.967211
103499.967208
103499.967203
103499.967197
103499.967189
103499.967179
103499.967168
103499.967156
103499.967142
103499.967127
103499.967111
103499.967093
103499.967074
103499.967053
103499.967032
103499.967008
103499.966983
103499.966957
103499.966929
103499.9669
103499.96687
103499.966838
103499.966805
103499.96677
103499.966734
103499.966697
103499.966658
103499.966617
103499.966576
103499.966533
103499.966489
103499.966444
103499.966397
103499.966349
103499.9663
103499.96625
103499.966199
103499.966148
103499.966095
103499.966041
103499.965986
103499.965931
103499.965875
103499.965819
103499.965762
103499.965705
103499.965647
103499.965589
103499.965532
103499.965474
103499.965417
103499.965359
103499.965303
103499.965247
103499.965192
103499.965138
103499.965085
103499.965034
103499.964985
103499.964938
103499.964893
103499.964851
103499.964813
103499.964778
103499.964748
103499.964723
103499.964705
103499.964693
103499.964691
103499.964698
103499.964718
103499.964753
103499.964807
103499.964883
103499.964986
103499.965124
103499.9653
103499.96552
103499.965812
103499.966151
103499.94193
103499.941929
103499.941926
103499.941921
103499.941915
103499.941907
103499.941897
103499.941887
103499.941874
103499.941861
103499.941846
103499.94183
103499.941812
103499.941793
103499.941772
103499.94175
103499.941727
103499.941703
103499.941677
103499.941649
103499.94162
103499.94159
103499.941559
103499.941526
103499.941491
103499.941455
103499.941418
103499.94138
103499.94134
103499.941299
103499.941257
103499.941213
103499.941168
103499.941123
103499.941075
103499.941027
103499.940978
103499.940928
103499.940877
103499.940825
103499.940772
103499.940718
103499.940664
103499.940609
103499.940554
103499.940498
103499.940442
103499.940386
103499.940329
103499.940273
103499.940216
103499.94016
103499.940105
103499.94005
103499.939995
103499.939942
103499.939889
103499.939838
103499.939789
103499.939741
103499.939695
103499.939652
103499.939612
103499.939575
103499.939541
103499.939512
103499.939489
103499.93947
103499.939459
103499.939456
103499.939461
103499.939478
103499.939506
103499.939549
103499.939608
103499.939684
103499.939776
103499.939879
103499.939976
103499.94004
103499.93999
103499.914878
103499.914876
103499.914873
103499.914868
103499.914862
103499.914854
103499.914845
103499.914834
103499.914822
103499.914808
103499.914794
103499.914777
103499.91476
103499.914741
103499.91472
103499.914699
103499.914676
103499.914651
103499.914625
103499.914598
103499.91457
103499.91454
103499.914509
103499.914476
103499.914442
103499.914407
103499.91437
103499.914332
103499.914293
103499.914252
103499.91421
103499.914167
103499.914123
103499.914078
103499.914032
103499.913984
103499.913936
103499.913886
103499.913836
103499.913785
103499.913733
103499.913681
103499.913627
103499.913574
103499.913519
103499.913465
103499.91341
103499.913355
103499.9133
103499.913245
103499.91319
103499.913135
103499.913081
103499.913027
103499.912974
103499.912923
103499.912872
103499.912822
103499.912774
103499.912728
103499.912684
103499.912642
103499.912603
103499.912567
103499.912534
103499.912506
103499.912482
103499.912464
103499.912451
103499.912445
103499.912447
103499.912456
103499.912475
103499.912503
103499.91254
103499.912583
103499.912629
103499.912666
103499.912674
103499.912622
103499.912455
103499.88593
103499.885929
103499.885925
103499.885921
103499.885914
103499.885906
103499.885897
103499.885887
103499.885875
103499.885861
103499.885846
103499.88583
103499.885813
103499.885794
103499.885774
103499.885752
103499.88573
103499.885705
103499.88568
103499.885653
103499.885625
103499.885595
103499.885564
103499.885532
103499.885498
103499.885463
103499.885427
103499.88539
103499.885351
103499.885311
103499.88527
103499.885228
103499.885184
103499.88514
103499.885094
103499.885047
103499.885
103499.884951
103499.884902
103499.884852
103499.884801
103499.88475
103499.884697
103499.884645
103499.884592
103499.884539
103499.884485
103499.884431
103499.884378
103499.884324
103499.884271
103499.884217
103499.884165
103499.884113
103499.884061
103499.884011
103499.883961
103499.883913
103499.883867
103499.883822
103499.883779
103499.883738
103499.8837
103499.883665
103499.883633
103499.883605
103499.88358
103499.88356
103499.883545
103499.883535
103499.88353
103499.883532
103499.883538
103499.883549
103499.883562
103499.883575
103499.88358
103499.883567
103499.88352
103499.883418
103499.883234
103499.854955
103499.854953
103499.85495
103499.854946
103499.854939
103499.854931
103499.854922
103499.854912
103499.8549
103499.854886
103499.854872
103499.854856
103499.854839
103499.85482
103499.8548
103499.854779
103499.854756
103499.854732
103499.854707
103499.85468
103499.854652
103499.854623
103499.854592
103499.854561
103499.854527
103499.854493
103499.854457
103499.85442
103499.854382
103499.854343
103499.854303
103499.854261
103499.854218
103499.854174
103499.85413
103499.854084
103499.854037
103499.85399
103499.853942
103499.853893
103499.853843
103499.853793
103499.853742
103499.85369
103499.853639
103499.853587
103499.853534
103499.853482
103499.85343
103499.853378
103499.853326
103499.853274
103499.853223
103499.853172
103499.853123
103499.853074
103499.853026
103499.852979
103499.852934
103499.85289
103499.852849
103499.852809
103499.852771
103499.852737
103499.852704
103499.852675
103499.852649
103499.852627
103499.852608
103499.852593
103499.852581
103499.852573
103499.852566
103499.85256
103499.852552
103499.852538
103499.852511
103499.852464
103499.852386
103499.852265
103499.852089
103499.82181
103499.821809
103499.821806
103499.821801
103499.821795
103499.821787
103499.821778
103499.821767
103499.821756
103499.821742
103499.821728
103499.821712
103499.821695
103499.821676
103499.821657
103499.821636
103499.821613
103499.82159
103499.821565
103499.821538
103499.821511
103499.821482
103499.821452
103499.82142
103499.821388
103499.821354
103499.821319
103499.821282
103499.821245
103499.821206
103499.821167
103499.821126
103499.821084
103499.821041
103499.820997
103499.820952
103499.820907
103499.82086
103499.820813
103499.820765
103499.820717
103499.820668
103499.820618
103499.820568
103499.820518
103499.820467
103499.820416
103499.820366
103499.820315
103499.820264
103499.820214
103499.820164
103499.820114
103499.820065
103499.820017
103499.819969
103499.819923
103499.819878
103499.819834
103499.819791
103499.81975
103499.819711
103499.819674
103499.819639
103499.819606
103499.819576
103499.819548
103499.819523
103499.8195
103499.819479
103499.819459
103499.819441
103499.819422
103499.8194
103499.819374
103499.819339
103499.819291
103499.819223
103499.81913
103499.819006
103499.818845
103499.786344
103499.786342
103499.786339
103499.786335
103499.786329
103499.786321
103499.786312
103499.786302
103499.78629
103499.786277
103499.786262
103499.786247
103499.78623
103499.786212
103499.786192
103499.786171
103499.786149
103499.786126
103499.786101
103499.786075
103499.786048
103499.78602
103499.78599
103499.785959
103499.785927
103499.785894
103499.785859
103499.785824
103499.785787
103499.785749
103499.78571
103499.78567
103499.785629
103499.785587
103499.785544
103499.785501
103499.785456
103499.785411
103499.785365
103499.785318
103499.785271
103499.785223
103499.785175
103499.785126
103499.785077
103499.785028
103499.784979
103499.78493
103499.784881
103499.784831
103499.784783
103499.784734
103499.784686
103499.784639
103499.784592
103499.784546
103499.784501
103499.784457
103499.784414
103499.784372
103499.784332
103499.784294
103499.784257
103499.784221
103499.784188
103499.784156
103499.784125
103499.784097
103499.784069
103499.784042
103499.784015
103499.783987
103499.783957
103499.783923
103499.783883
103499.783833
103499.783771
103499.783693
103499.783594
103499.783474
103499.78333
103499.748393
103499.748392
103499.748389
103499.748385
103499.748378
103499.748371
103499.748362
103499.748352
103499.74834
103499.748327
103499.748313
103499.748298
103499.748281
103499.748263
103499.748244
103499.748223
103499.748201
103499.748178
103499.748154
103499.748129
103499.748102
103499.748074
103499.748045
103499.748015
103499.747983
103499.74795
103499.747917
103499.747882
103499.747846
103499.747809
103499.747771
103499.747731
103499.747691
103499.747651
103499.747609
103499.747566
103499.747523
103499.747479
103499.747434
103499.747389
103499.747343
103499.747296
103499.74725
103499.747202
103499.747155
103499.747108
103499.74706
103499.747012
103499.746965
103499.746917
103499.74687
103499.746823
103499.746777
103499.746731
103499.746686
103499.746641
103499.746597
103499.746554
103499.746513
103499.746472
103499.746432
103499.746394
103499.746356
103499.74632
103499.746286
103499.746252
103499.746219
103499.746187
103499.746154
103499.746122
103499.746088
103499.746053
103499.746014
103499.74597
103499.745919
103499.74586
103499.74579
103499.745708
103499.74561
103499.745497
103499.745368
103499.707785
103499.707784
103499.707781
103499.707776
103499.70777
103499.707763
103499.707754
103499.707744
103499.707733
103499.70772
103499.707706
103499.707691
103499.707674
103499.707656
103499.707637
103499.707617
103499.707596
103499.707573
103499.707549
103499.707524
103499.707498
103499.707471
103499.707442
103499.707412
103499.707382
103499.70735
103499.707317
103499.707283
103499.707247
103499.707211
103499.707174
103499.707136
103499.707097
103499.707057
103499.707017
103499.706975
103499.706933
103499.70689
103499.706847
103499.706803
103499.706758
103499.706714
103499.706668
103499.706623
103499.706577
103499.706531
103499.706485
103499.706439
103499.706393
103499.706347
103499.706302
103499.706257
103499.706212
103499.706168
103499.706124
103499.706081
103499.706038
103499.705996
103499.705955
103499.705915
103499.705876
103499.705838
103499.7058
103499.705763
103499.705727
103499.705691
103499.705656
103499.70562
103499.705584
103499.705547
103499.705507
103499.705466
103499.70542
103499.705369
103499.705313
103499.705248
103499.705175
103499.705092
103499.704998
103499.704894
103499.704779
103499.664332
103499.664331
103499.664328
103499.664324
103499.664318
103499.664311
103499.664302
103499.664292
103499.664281
103499.664268
103499.664255
103499.66424
103499.664223
103499.664206
103499.664187
103499.664167
103499.664146
103499.664124
103499.664101
103499.664076
103499.664051
103499.664024
103499.663996
103499.663967
103499.663937
103499.663906
103499.663873
103499.66384
103499.663806
103499.663771
103499.663735
103499.663698
103499.66366
103499.663621
103499.663582
103499.663542
103499.663501
103499.66346
103499.663418
103499.663375
103499.663332
103499.663289
103499.663245
103499.663201
103499.663157
103499.663113
103499.663069
103499.663025
103499.66298
103499.662936
103499.662892
103499.662849
103499.662806
103499.662763
103499.66272
103499.662679
103499.662637
103499.662597
103499.662556
103499.662517
103499.662478
103499.66244
103499.662402
103499.662364
103499.662327
103499.662289
103499.662251
103499.662213
103499.662173
103499.662132
103499.662089
103499.662042
103499.661992
103499.661937
103499.661877
103499.661811
103499.661738
103499.661657
103499.661569
103499.661473
103499.66137
103499.617836
103499.617835
103499.617832
103499.617828
103499.617822
103499.617815
103499.617807
103499.617797
103499.617786
103499.617773
103499.61776
103499.617745
103499.617729
103499.617712
103499.617694
103499.617675
103499.617654
103499.617632
103499.61761
103499.617586
103499.617561
103499.617534
103499.617507
103499.617479
103499.61745
103499.617419
103499.617388
103499.617356
103499.617322
103499.617288
103499.617253
103499.617217
103499.617181
103499.617144
103499.617105
103499.617067
103499.617027
103499.616987
103499.616947
103499.616906
103499.616865
103499.616823
103499.616781
103499.616739
103499.616697
103499.616654
103499.616612
103499.616569
103499.616527
103499.616485
103499.616443
103499.616401
103499.616359
103499.616318
103499.616277
103499.616236
103499.616196
103499.616156
103499.616117
103499.616078
103499.61604
103499.616001
103499.615963
103499.615925
103499.615886
103499.615847
103499.615808
103499.615767
103499.615725
103499.615681
103499.615635
103499.615585
103499.615533
103499.615476
103499.615415
103499.615349
103499.615277
103499.6152
103499.615118
103499.61503
103499.614938
103499.568084
103499.568083
103499.56808
103499.568076
103499.56807
103499.568063
103499.568055
103499.568045
103499.568034
103499.568022
103499.568009
103499.567995
103499.567979
103499.567962
103499.567945
103499.567926
103499.567906
103499.567884
103499.567862
103499.567839
103499.567814
103499.567789
103499.567763
103499.567735
103499.567707
103499.567677
103499.567647
103499.567616
103499.567584
103499.567551
103499.567517
103499.567482
103499.567447
103499.567411
103499.567374
103499.567337
103499.567299
103499.567261
103499.567222
103499.567183
103499.567143
103499.567104
103499.567063
103499.567023
103499.566983
103499.566942
103499.566901
103499.566861
103499.56682
103499.56678
103499.566739
103499.566699
103499.566659
103499.566619
103499.56658
103499.566541
103499.566502
103499.566463
103499.566424
103499.566386
103499.566348
103499.566309
103499.566271
103499.566232
103499.566193
103499.566153
103499.566112
103499.56607
103499.566027
103499.565981
103499.565933
103499.565883
103499.565829
103499.565773
103499.565712
103499.565648
103499.56558
103499.565507
103499.565431
103499.565351
103499.565268
103499.514847
103499.514846
103499.514843
103499.514839
103499.514833
103499.514826
103499.514818
103499.514809
103499.514798
103499.514787
103499.514774
103499.51476
103499.514745
103499.514728
103499.514711
103499.514692
103499.514673
103499.514652
103499.514631
103499.514608
103499.514585
103499.51456
103499.514534
103499.514508
103499.51448
103499.514452
103499.514423
103499.514392
103499.514362
103499.51433
103499.514297
103499.514264
103499.51423
103499.514196
103499.514161
103499.514125
103499.514089
103499.514052
103499.514015
103499.513978
103499.51394
103499.513902
103499.513864
103499.513825
103499.513787
103499.513748
103499.513709
103499.51367
103499.513632
103499.513593
103499.513554
103499.513516
103499.513478
103499.51344
103499.513402
103499.513364
103499.513326
103499.513288
103499.513251
103499.513213
103499.513175
103499.513137
103499.513099
103499.51306
103499.513021
103499.51298
103499.512939
103499.512896
103499.512852
103499.512806
103499.512758
103499.512708
103499.512655
103499.512599
103499.51254
103499.512479
103499.512415
103499.512347
103499.512277
103499.512205
103499.51213
103499.457881
103499.45788
103499.457877
103499.457873
103499.457868
103499.457861
103499.457853
103499.457844
103499.457834
103499.457822
103499.45781
103499.457796
103499.457782
103499.457766
103499.457749
103499.457731
103499.457712
103499.457692
103499.457671
103499.45765
103499.457627
103499.457603
103499.457578
103499.457553
103499.457526
103499.457499
103499.457471
103499.457442
103499.457412
103499.457382
103499.457351
103499.457319
103499.457287
103499.457254
103499.45722
103499.457186
103499.457152
103499.457117
103499.457082
103499.457046
103499.45701
103499.456974
103499.456938
103499.456902
103499.456865
103499.456828
103499.456791
103499.456755
103499.456718
103499.456681
103499.456645
103499.456608
103499.456571
103499.456535
103499.456498
103499.456462
103499.456426
103499.456389
103499.456352
103499.456316
103499.456279
103499.456241
103499.456203
103499.456165
103499.456126
103499.456086
103499.456044
103499.456002
103499.455958
103499.455912
103499.455865
103499.455816
103499.455764
103499.455711
103499.455655
103499.455597
103499.455537
103499.455475
103499.455411
103499.455346
103499.455279
103499.396926
103499.396925
103499.396922
103499.396918
103499.396913
103499.396906
103499.396899
103499.39689
103499.39688
103499.396869
103499.396857
103499.396843
103499.396829
103499.396814
103499.396798
103499.39678
103499.396762
103499.396743
103499.396723
103499.396702
103499.39668
103499.396657
103499.396634
103499.396609
103499.396584
103499.396558
103499.396531
103499.396503
103499.396475
103499.396446
103499.396417
103499.396386
103499.396356
103499.396324
103499.396293
103499.39626
103499.396228
103499.396195
103499.396162
103499.396128
103499.396094
103499.39606
103499.396026
103499.395991
103499.395957
103499.395922
103499.395887
103499.395853
103499.395818
103499.395783
103499.395748
103499.395714
103499.395679
103499.395644
103499.395609
103499.395574
103499.395539
103499.395504
103499.395469
103499.395433
103499.395397
103499.395361
103499.395324
103499.395286
103499.395248
103499.395208
103499.395168
103499.395126
103499.395083
103499.395039
103499.394994
103499.394946
103499.394897
103499.394847
103499.394795
103499.394741
103499.394686
103499.394629
103499.394571
103499.394511
103499.394451
103499.331701
103499.3317
103499.331697
103499.331693
103499.331688
103499.331682
103499.331675
103499.331666
103499.331657
103499.331646
103499.331634
103499.331622
103499.331608
103499.331593
103499.331578
103499.331561
103499.331544
103499.331525
103499.331506
103499.331486
103499.331465
103499.331443
103499.331421
103499.331397
103499.331373
103499.331349
103499.331323
103499.331297
103499.33127
103499.331243
103499.331215
103499.331186
103499.331157
103499.331128
103499.331098
103499.331068
103499.331037
103499.331006
103499.330975
103499.330943
103499.330911
103499.330879
103499.330847
103499.330815
103499.330783
103499.33075
103499.330718
103499.330685
103499.330652
103499.33062
103499.330587
103499.330554
103499.330521
103499.330488
103499.330455
103499.330422
103499.330389
103499.330355
103499.330321
103499.330287
103499.330252
103499.330217
103499.330181
103499.330145
103499.330108
103499.33007
103499.330031
103499.329991
103499.32995
103499.329908
103499.329864
103499.32982
103499.329774
103499.329727
103499.329678
103499.329629
103499.329578
103499.329527
103499.329475
103499.329421
103499.329368
103499.261908
103499.261907
103499.261904
103499.261901
103499.261896
103499.26189
103499.261883
103499.261875
103499.261865
103499.261855
103499.261844
103499.261832
103499.261819
103499.261805
103499.26179
103499.261774
103499.261758
103499.26174
103499.261722
103499.261703
103499.261683
103499.261662
103499.261641
103499.261619
103499.261596
103499.261573
103499.261549
103499.261524
103499.261499
103499.261473
103499.261447
103499.26142
103499.261393
103499.261366
103499.261338
103499.261309
103499.261281
103499.261252
103499.261223
103499.261193
103499.261164
103499.261134
103499.261104
103499.261074
103499.261044
103499.261014
103499.260983
103499.260953
103499.260922
103499.260892
103499.260861
103499.260831
103499.2608
103499.260769
103499.260738
103499.260706
103499.260675
103499.260643
103499.260611
103499.260578
103499.260545
103499.260512
103499.260478
103499.260443
103499.260408
103499.260372
103499.260335
103499.260297
103499.260258
103499.260219
103499.260178
103499.260137
103499.260094
103499.260051
103499.260007
103499.259962
103499.259916
103499.25987
103499.259823
103499.259775
103499.259728
103499.187227
103499.187226
103499.187224
103499.18722
103499.187215
103499.18721
103499.187203
103499.187195
103499.187186
103499.187177
103499.187166
103499.187154
103499.187142
103499.187129
103499.187115
103499.1871
103499.187084
103499.187068
103499.18705
103499.187032
103499.187014
103499.186994
103499.186974
103499.186954
103499.186932
103499.18691
103499.186888
103499.186865
103499.186842
103499.186818
103499.186793
103499.186768
103499.186743
103499.186718
103499.186692
103499.186666
103499.186639
103499.186612
103499.186585
103499.186558
103499.186531
103499.186504
103499.186476
103499.186448
103499.18642
103499.186393
103499.186365
103499.186336
103499.186308
103499.18628
103499.186252
103499.186223
103499.186194
103499.186166
103499.186137
103499.186107
103499.186078
103499.186048
103499.186018
103499.185987
103499.185956
103499.185925
103499.185893
103499.185861
103499.185828
103499.185794
103499.185759
103499.185724
103499.185688
103499.185652
103499.185615
103499.185577
103499.185538
103499.185499
103499.185459
103499.185419
103499.185378
103499.185336
103499.185295
103499.185253
103499.18521
103499.107315
103499.107314
103499.107312
103499.107309
103499.107304
103499.107299
103499.107293
103499.107285
103499.107277
103499.107268
103499.107258
103499.107247
103499.107235
103499.107223
103499.10721
103499.107196
103499.107181
103499.107166
103499.107149
103499.107133
103499.107115
103499.107097
103499.107079
103499.107059
103499.10704
103499.107019
103499.106998
103499.106977
103499.106956
103499.106934
103499.106911
103499.106888
103499.106865
103499.106842
103499.106818
103499.106794
103499.10677
103499.106745
103499.106721
103499.106696
103499.106671
103499.106646
103499.106621
103499.106596
103499.10657
103499.106545
103499.106519
103499.106493
103499.106468
103499.106442
103499.106416
103499.10639
103499.106363
103499.106337
103499.10631
103499.106283
103499.106256
103499.106228
103499.106201
103499.106172
103499.106144
103499.106115
103499.106085
103499.106055
103499.106025
103499.105994
103499.105962
103499.10593
103499.105898
103499.105865
103499.105831
103499.105797
103499.105762
103499.105727
103499.105692
103499.105656
103499.10562
103499.105583
103499.105546
103499.10551
103499.105473
103499.021807
103499.021806
103499.021804
103499.021801
103499.021797
103499.021792
103499.021786
103499.021779
103499.021771
103499.021763
103499.021753
103499.021743
103499.021732
103499.021721
103499.021708
103499.021695
103499.021682
103499.021667
103499.021653
103499.021637
103499.021621
103499.021604
103499.021587
103499.02157
103499.021552
103499.021533
103499.021514
103499.021495
103499.021475
103499.021455
103499.021434
103499.021414
103499.021393
103499.021371
103499.02135
103499.021328
103499.021306
103499.021284
103499.021262
103499.02124
103499.021217
103499.021195
103499.021172
103499.02115
103499.021127
103499.021104
103499.021081
103499.021058
103499.021034
103499.021011
103499.020987
103499.020964
103499.02094
103499.020916
103499.020892
103499.020867
103499.020843
103499.020818
103499.020793
103499.020767
103499.020741
103499.020715
103499.020688
103499.020661
103499.020633
103499.020606
103499.020577
103499.020549
103499.020519
103499.02049
103499.02046
103499.02043
103499.020399
103499.020368
103499.020337
103499.020306
103499.020274
103499.020243
103499.020211
103499.020179
103499.020147
103498.93031
103498.930309
103498.930307
103498.930304
103498.9303
103498.930296
103498.93029
103498.930284
103498.930277
103498.930269
103498.93026
103498.930251
103498.930241
103498.93023
103498.930219
103498.930207
103498.930195
103498.930182
103498.930168
103498.930154
103498.930139
103498.930124
103498.930109
103498.930093
103498.930076
103498.93006
103498.930043
103498.930025
103498.930007
103498.929989
103498.929971
103498.929953
103498.929934
103498.929915
103498.929896
103498.929877
103498.929857
103498.929838
103498.929818
103498.929798
103498.929778
103498.929758
103498.929738
103498.929718
103498.929698
103498.929678
103498.929657
103498.929637
103498.929616
103498.929596
103498.929575
103498.929554
103498.929533
103498.929511
103498.92949
103498.929468
103498.929446
103498.929424
103498.929402
103498.929379
103498.929356
103498.929333
103498.929309
103498.929285
103498.929261
103498.929236
103498.929211
103498.929186
103498.929161
103498.929135
103498.929109
103498.929083
103498.929056
103498.92903
103498.929003
103498.928976
103498.928949
103498.928922
103498.928895
103498.928868
103498.928841
103498.832405
103498.832404
103498.832402
103498.832399
103498.832396
103498.832392
103498.832387
103498.832381
103498.832374
103498.832367
103498.832359
103498.832351
103498.832342
103498.832332
103498.832322
103498.832311
103498.8323
103498.832288
103498.832276
103498.832264
103498.832251
103498.832237
103498.832223
103498.832209
103498.832195
103498.83218
103498.832165
103498.832149
103498.832134
103498.832118
103498.832102
103498.832086
103498.832069
103498.832053
103498.832036
103498.832019
103498.832003
103498.831986
103498.831969
103498.831951
103498.831934
103498.831917
103498.8319
103498.831882
103498.831865
103498.831847
103498.83183
103498.831812
103498.831794
103498.831776
103498.831758
103498.83174
103498.831722
103498.831703
103498.831684
103498.831666
103498.831647
103498.831627
103498.831608
103498.831588
103498.831568
103498.831548
103498.831528
103498.831507
103498.831487
103498.831466
103498.831444
103498.831423
103498.831401
103498.831379
103498.831357
103498.831335
103498.831313
103498.83129
103498.831268
103498.831245
103498.831222
103498.8312
103498.831177
103498.831154
103498.831132
103498.727642
103498.727642
103498.72764
103498.727638
103498.727635
103498.727631
103498.727626
103498.727621
103498.727615
103498.727609
103498.727602
103498.727594
103498.727586
103498.727578
103498.727569
103498.727559
103498.72755
103498.727539
103498.727529
103498.727518
103498.727506
103498.727494
103498.727482
103498.72747
103498.727458
103498.727445
103498.727432
103498.727419
103498.727405
103498.727392
103498.727378
103498.727364
103498.72735
103498.727336
103498.727322
103498.727308
103498.727294
103498.727279
103498.727265
103498.72725
103498.727236
103498.727221
103498.727207
103498.727192
103498.727178
103498.727163
103498.727148
103498.727133
103498.727118
103498.727103
103498.727088
103498.727073
103498.727058
103498.727042
103498.727027
103498.727011
103498.726995
103498.726979
103498.726963
103498.726946
103498.72693
103498.726913
103498.726896
103498.726879
103498.726861
103498.726844
103498.726826
103498.726809
103498.726791
103498.726773
103498.726755
103498.726736
103498.726718
103498.7267
103498.726681
103498.726663
103498.726645
103498.726626
103498.726608
103498.72659
103498.726572
103498.615543
103498.615542
103498.615541
103498.615539
103498.615536
103498.615533
103498.615529
103498.615524
103498.615519
103498.615514
103498.615508
103498.615501
103498.615494
103498.615487
103498.615479
103498.615471
103498.615463
103498.615454
103498.615445
103498.615435
103498.615426
103498.615416
103498.615406
103498.615395
103498.615385
103498.615374
103498.615363
103498.615352
103498.615341
103498.61533
103498.615319
103498.615307
103498.615296
103498.615284
103498.615273
103498.615261
103498.61525
103498.615238
103498.615227
103498.615215
103498.615203
103498.615192
103498.61518
103498.615168
103498.615156
103498.615144
103498.615133
103498.615121
103498.615109
103498.615097
103498.615085
103498.615072
103498.61506
103498.615048
103498.615035
103498.615023
103498.61501
103498.614997
103498.614984
103498.614971
103498.614958
103498.614945
103498.614931
103498.614917
103498.614904
103498.61489
103498.614876
103498.614862
103498.614848
103498.614834
103498.614819
103498.614805
103498.614791
103498.614777
103498.614762
103498.614748
103498.614733
103498.614719
103498.614705
103498.614691
103498.614677
103498.495592
103498.495591
103498.49559
103498.495588
103498.495586
103498.495583
103498.49558
103498.495576
103498.495572
103498.495567
103498.495562
103498.495557
103498.495551
103498.495545
103498.495539
103498.495532
103498.495525
103498.495518
103498.49551
103498.495503
103498.495495
103498.495487
103498.495479
103498.49547
103498.495462
103498.495454
103498.495445
103498.495436
103498.495428
103498.495419
103498.49541
103498.495401
103498.495392
103498.495383
103498.495375
103498.495366
103498.495357
103498.495348
103498.495339
103498.49533
103498.495322
103498.495313
103498.495304
103498.495295
103498.495286
103498.495277
103498.495269
103498.49526
103498.495251
103498.495242
103498.495233
103498.495224
103498.495215
103498.495205
103498.495196
103498.495187
103498.495177
103498.495168
103498.495158
103498.495148
103498.495139
103498.495129
103498.495119
103498.495109
103498.495099
103498.495088
103498.495078
103498.495068
103498.495057
103498.495047
103498.495037