/*--------------------------------*- C++ -*----------------------------------*\
| =========                 |                                                 |
| \\      /  F ield         | OpenFOAM: The Open Source CFD Toolbox           |
|  \\    /   O peration     | Version:  2112                                  |
|   \\  /    A nd           | Website:  www.openfoam.com                      |
|    \\/     M anipulation  |                                                 |
\*---------------------------------------------------------------------------*/
FoamFile
{
    version     2.0;
    format      ascii;
    arch        "LSB;label=32;scalar=64";
    class       volScalarField;
    location    "1";
    object      p_rgh;
}
// * * * * * * * * * * * * * * * * * * * * * * * * * * * * * * * * * * * * * //

dimensions      [1 -1 -2 0 0 0 0];

internalField   nonuniform List<scalar> 
12013
(
103500.002253
103500.002252
103500.002249
103500.002244
103500.002237
103500.002229
103500.00222
103500.002209
103500.002197
103500.002183
103500.002168
103500.002151
103500.002133
103500.002114
103500.002093
103500.002071
103500.002048
103500.002023
103500.001996
103500.001968
103500.001939
103500.001908
103500.001876
103500.001842
103500.001807
103500.00177
103500.001732
103500.001693
103500.001652
103500.00161
103500.001567
103500.001522
103500.001476
103500.001428
103500.001379
103500.00133
103500.001279
103500.001227
103500.001174
103500.001119
103500.001064
103500.001009
103500.000952
103500.000895
103500.000837
103500.000778
103500.000719
103500.00066
103500.000601
103500.000541
103500.000482
103500.000422
103500.000363
103500.000304
103500.000246
103500.000189
103500.000132
103500.000077
103500.000024
103499.999972
103499.999922
103499.999875
103499.99983
103499.999789
103499.999752
103499.999719
103499.999691
103499.99967
103499.999656
103499.999652
103499.999658
103499.999677
103499.999713
103499.999769
103499.999852
103499.99997
103500.000136
103500.000364
103500.000689
103500.001202
103500.001997
103500.002254
103500.002252
103500.002249
103500.002244
103500.002238
103500.00223
103500.00222
103500.002209
103500.002197
103500.002183
103500.002168
103500.002151
103500.002134
103500.002114
103500.002094
103500.002071
103500.002048
103500.002023
103500.001996
103500.001968
103500.001939
103500.001908
103500.001876
103500.001842
103500.001807
103500.001771
103500.001733
103500.001693
103500.001652
103500.00161
103500.001567
103500.001522
103500.001476
103500.001428
103500.00138
103500.00133
103500.001279
103500.001227
103500.001174
103500.00112
103500.001065
103500.001009
103500.000952
103500.000895
103500.000837
103500.000779
103500.00072
103500.00066
103500.000601
103500.000541
103500.000482
103500.000422
103500.000363
103500.000304
103500.000246
103500.000189
103500.000132
103500.000077
103500.000023
103499.999971
103499.999921
103499.999874
103499.999829
103499.999787
103499.999749
103499.999716
103499.999688
103499.999666
103499.999651
103499.999644
103499.999648
103499.999663
103499.999694
103499.999742
103499.999813
103499.999911
103500.000043
103500.000213
103500.000426
103500.000711
103500.001041
103500.002254
103500.002252
103500.002249
103500.002244
103500.002238
103500.00223
103500.00222
103500.002209
103500.002197
103500.002183
103500.002168
103500.002152
103500.002134
103500.002114
103500.002094
103500.002072
103500.002048
103500.002023
103500.001997
103500.001969
103500.001939
103500.001909
103500.001876
103500.001843
103500.001808
103500.001771
103500.001733
103500.001694
103500.001653
103500.001611
103500.001567
103500.001523
103500.001476
103500.001429
103500.00138
103500.001331
103500.00128
103500.001228
103500.001175
103500.001121
103500.001066
103500.00101
103500.000953
103500.000896
103500.000838
103500.000779
103500.00072
103500.000661
103500.000602
103500.000542
103500.000482
103500.000423
103500.000364
103500.000305
103500.000246
103500.000189
103500.000132
103500.000077
103500.000023
103499.99997
103499.99992
103499.999872
103499.999826
103499.999784
103499.999745
103499.99971
103499.999681
103499.999656
103499.999638
103499.999628
103499.999627
103499.999636
103499.999657
103499.999691
103499.999742
103499.999809
103499.999892
103499.999984
103500.000071
103500.000123
103500.000061
103500.002254
103500.002253
103500.002249
103500.002244
103500.002238
103500.00223
103500.00222
103500.00221
103500.002197
103500.002184
103500.002169
103500.002152
103500.002134
103500.002115
103500.002094
103500.002072
103500.002049
103500.002024
103500.001997
103500.001969
103500.00194
103500.001909
103500.001877
103500.001843
103500.001808
103500.001772
103500.001734
103500.001695
103500.001654
103500.001612
103500.001568
103500.001524
103500.001477
103500.00143
103500.001382
103500.001332
103500.001281
103500.001229
103500.001176
103500.001122
103500.001067
103500.001011
103500.000954
103500.000897
103500.000839
103500.000781
103500.000722
103500.000662
103500.000603
103500.000543
103500.000483
103500.000424
103500.000364
103500.000305
103500.000247
103500.000189
103500.000132
103500.000076
103500.000022
103499.999969
103499.999918
103499.999869
103499.999822
103499.999778
103499.999738
103499.999701
103499.999669
103499.999642
103499.99962
103499.999604
103499.999596
103499.999595
103499.999603
103499.999619
103499.999644
103499.999675
103499.999708
103499.999731
103499.999726
103499.999659
103499.999479
103500.002254
103500.002253
103500.00225
103500.002245
103500.002238
103500.00223
103500.002221
103500.00221
103500.002198
103500.002184
103500.002169
103500.002153
103500.002135
103500.002115
103500.002095
103500.002073
103500.002049
103500.002024
103500.001998
103500.00197
103500.001941
103500.00191
103500.001878
103500.001844
103500.001809
103500.001773
103500.001735
103500.001696
103500.001655
103500.001613
103500.00157
103500.001525
103500.001479
103500.001432
103500.001383
103500.001333
103500.001283
103500.001231
103500.001178
103500.001124
103500.001069
103500.001013
103500.000956
103500.000899
103500.000841
103500.000782
103500.000723
103500.000664
103500.000604
103500.000545
103500.000485
103500.000425
103500.000365
103500.000306
103500.000247
103500.000189
103500.000132
103500.000075
103500.00002
103499.999967
103499.999914
103499.999864
103499.999816
103499.999771
103499.999728
103499.999689
103499.999653
103499.999622
103499.999594
103499.999572
103499.999554
103499.999542
103499.999534
103499.999531
103499.999529
103499.999526
103499.999515
103499.999485
103499.999422
103499.999303
103499.999103
103500.002255
103500.002253
103500.00225
103500.002245
103500.002239
103500.002231
103500.002221
103500.002211
103500.002198
103500.002185
103500.00217
103500.002153
103500.002135
103500.002116
103500.002096
103500.002074
103500.00205
103500.002025
103500.001999
103500.001971
103500.001942
103500.001911
103500.001879
103500.001846
103500.001811
103500.001774
103500.001737
103500.001697
103500.001657
103500.001615
103500.001572
103500.001527
103500.001481
103500.001434
103500.001385
103500.001336
103500.001285
103500.001233
103500.00118
103500.001126
103500.001071
103500.001015
103500.000959
103500.000902
103500.000844
103500.000785
103500.000726
103500.000667
103500.000607
103500.000547
103500.000487
103500.000427
103500.000367
103500.000307
103500.000248
103500.000189
103500.000131
103500.000074
103500.000018
103499.999964
103499.99991
103499.999859
103499.999809
103499.999761
103499.999716
103499.999673
103499.999633
103499.999596
103499.999563
103499.999532
103499.999504
103499.999479
103499.999456
103499.999432
103499.999406
103499.999373
103499.999328
103499.999262
103499.999165
103499.999025
103499.998831
103500.002255
103500.002254
103500.002251
103500.002246
103500.002239
103500.002231
103500.002222
103500.002211
103500.002199
103500.002185
103500.002171
103500.002154
103500.002136
103500.002117
103500.002097
103500.002075
103500.002051
103500.002027
103500.002
103500.001973
103500.001944
103500.001913
103500.001881
103500.001848
103500.001813
103500.001776
103500.001739
103500.0017
103500.001659
103500.001617
103500.001574
103500.00153
103500.001484
103500.001437
103500.001388
103500.001339
103500.001288
103500.001236
103500.001183
103500.001129
103500.001074
103500.001019
103500.000962
103500.000905
103500.000847
103500.000788
103500.000729
103500.00067
103500.00061
103500.00055
103500.000489
103500.000429
103500.000369
103500.000309
103500.000249
103500.00019
103500.000131
103500.000073
103500.000016
103499.99996
103499.999905
103499.999852
103499.9998
103499.99975
103499.999701
103499.999654
103499.99961
103499.999567
103499.999526
103499.999486
103499.999448
103499.99941
103499.999371
103499.999329
103499.999282
103499.999226
103499.999157
103499.999068
103499.998954
103499.998809
103499.998628
103500.002256
103500.002255
103500.002252
103500.002247
103500.00224
103500.002232
103500.002223
103500.002212
103500.0022
103500.002187
103500.002172
103500.002155
103500.002138
103500.002119
103500.002098
103500.002076
103500.002053
103500.002028
103500.002002
103500.001975
103500.001946
103500.001915
103500.001883
103500.00185
103500.001815
103500.001779
103500.001742
103500.001703
103500.001662
103500.00162
103500.001577
103500.001533
103500.001487
103500.00144
103500.001392
103500.001342
103500.001292
103500.00124
103500.001187
103500.001134
103500.001079
103500.001023
103500.000967
103500.000909
103500.000851
103500.000793
103500.000734
103500.000674
103500.000614
103500.000554
103500.000493
103500.000432
103500.000372
103500.000311
103500.000251
103500.000191
103500.000131
103500.000072
103500.000014
103499.999956
103499.9999
103499.999844
103499.99979
103499.999736
103499.999684
103499.999633
103499.999583
103499.999534
103499.999485
103499.999437
103499.999389
103499.999339
103499.999286
103499.999229
103499.999165
103499.999092
103499.999006
103499.998905
103499.998784
103499.998641
103499.998475
103500.002257
103500.002256
103500.002253
103500.002248
103500.002241
103500.002233
103500.002224
103500.002213
103500.002201
103500.002188
103500.002173
103500.002157
103500.002139
103500.00212
103500.0021
103500.002078
103500.002055
103500.00203
103500.002004
103500.001977
103500.001948
103500.001918
103500.001886
103500.001853
103500.001818
103500.001782
103500.001745
103500.001706
103500.001666
103500.001624
103500.001581
103500.001537
103500.001492
103500.001445
103500.001397
103500.001347
103500.001297
103500.001245
103500.001193
103500.001139
103500.001084
103500.001029
103500.000972
103500.000915
103500.000857
103500.000798
103500.000739
103500.000679
103500.000619
103500.000558
103500.000498
103500.000437
103500.000375
103500.000314
103500.000253
103500.000192
103500.000132
103500.000072
103500.000012
103499.999953
103499.999894
103499.999836
103499.999778
103499.999722
103499.999665
103499.99961
103499.999554
103499.999499
103499.999444
103499.999387
103499.999329
103499.999268
103499.999204
103499.999135
103499.999059
103499.998974
103499.998879
103499.998771
103499.998649
103499.998512
103499.99836
103500.002259
103500.002257
103500.002254
103500.002249
103500.002243
103500.002235
103500.002226
103500.002215
103500.002203
103500.00219
103500.002175
103500.002159
103500.002141
103500.002122
103500.002102
103500.00208
103500.002057
103500.002033
103500.002007
103500.00198
103500.001951
103500.001921
103500.001889
103500.001857
103500.001822
103500.001786
103500.001749
103500.001711
103500.001671
103500.001629
103500.001586
103500.001542
103500.001497
103500.00145
103500.001402
103500.001353
103500.001303
103500.001251
103500.001199
103500.001145
103500.001091
103500.001035
103500.000979
103500.000922
103500.000864
103500.000805
103500.000746
103500.000686
103500.000625
103500.000565
103500.000503
103500.000442
103500.00038
103500.000318
103500.000257
103500.000195
103500.000133
103500.000072
103500.00001
103499.999949
103499.999888
103499.999827
103499.999767
103499.999707
103499.999647
103499.999586
103499.999526
103499.999464
103499.999402
103499.999338
103499.999272
103499.999203
103499.999129
103499.999051
103499.998967
103499.998875
103499.998774
103499.998664
103499.998544
103499.998413
103499.998273
103500.00226
103500.002259
103500.002255
103500.002251
103500.002244
103500.002236
103500.002227
103500.002217
103500.002205
103500.002192
103500.002177
103500.002161
103500.002144
103500.002125
103500.002105
103500.002083
103500.00206
103500.002036
103500.00201
103500.001983
103500.001955
103500.001925
103500.001894
103500.001861
103500.001827
103500.001791
103500.001754
103500.001716
103500.001676
103500.001635
103500.001593
103500.001549
103500.001504
103500.001457
103500.001409
103500.001361
103500.00131
103500.001259
103500.001207
103500.001153
103500.001099
103500.001044
103500.000987
103500.00093
103500.000872
103500.000813
103500.000754
103500.000694
103500.000633
103500.000572
103500.000511
103500.000449
103500.000387
103500.000324
103500.000261
103500.000199
103500.000136
103500.000073
103500.000009
103499.999946
103499.999883
103499.99982
103499.999756
103499.999693
103499.999629
103499.999564
103499.999498
103499.999432
103499.999364
103499.999293
103499.99922
103499.999144
103499.999064
103499.99898
103499.99889
103499.998794
103499.998691
103499.998582
103499.998465
103499.998341
103499.998212
103500.002262
103500.002261
103500.002257
103500.002252
103500.002246
103500.002239
103500.002229
103500.002219
103500.002207
103500.002194
103500.002179
103500.002164
103500.002146
103500.002128
103500.002108
103500.002087
103500.002064
103500.00204
103500.002015
103500.001988
103500.00196
103500.00193
103500.001899
103500.001866
103500.001832
103500.001797
103500.001761
103500.001722
103500.001683
103500.001642
103500.0016
103500.001556
103500.001512
103500.001465
103500.001418
103500.001369
103500.001319
103500.001268
103500.001216
103500.001163
103500.001109
103500.001054
103500.000997
103500.00094
103500.000882
103500.000824
103500.000764
103500.000704
103500.000643
103500.000582
103500.00052
103500.000457
103500.000395
103500.000331
103500.000268
103500.000204
103500.00014
103500.000075
103500.00001
103499.999945
103499.99988
103499.999814
103499.999748
103499.999681
103499.999613
103499.999544
103499.999475
103499.999403
103499.99933
103499.999255
103499.999177
103499.999096
103499.999011
103499.998923
103499.99883
103499.998732
103499.99863
103499.998522
103499.99841
103499.998292
103499.998171
103500.002264
103500.002263
103500.00226
103500.002255
103500.002249
103500.002241
103500.002232
103500.002222
103500.00221
103500.002197
103500.002183
103500.002167
103500.00215
103500.002132
103500.002112
103500.002091
103500.002068
103500.002045
103500.002019
103500.001993
103500.001965
103500.001936
103500.001905
103500.001873
103500.001839
103500.001804
103500.001768
103500.00173
103500.001691
103500.001651
103500.001609
103500.001566
103500.001521
103500.001475
103500.001428
103500.00138
103500.00133
103500.00128
103500.001228
103500.001175
103500.001121
103500.001066
103500.00101
103500.000953
103500.000895
103500.000836
103500.000777
103500.000716
103500.000655
103500.000594
103500.000531
103500.000468
103500.000405
103500.000341
103500.000277
103500.000212
103500.000146
103500.00008
103500.000014
103499.999947
103499.999879
103499.999811
103499.999742
103499.999672
103499.999601
103499.999529
103499.999456
103499.999381
103499.999304
103499.999225
103499.999143
103499.999059
103499.998972
103499.998881
103499.998787
103499.998689
103499.998588
103499.998483
103499.998375
103499.998264
103499.998151
103500.002267
103500.002265
103500.002262
103500.002258
103500.002251
103500.002244
103500.002235
103500.002225
103500.002213
103500.0022
103500.002186
103500.002171
103500.002154
103500.002136
103500.002117
103500.002096
103500.002074
103500.00205
103500.002025
103500.001999
103500.001972
103500.001943
103500.001912
103500.00188
103500.001847
103500.001813
103500.001777
103500.00174
103500.001701
103500.001661
103500.001619
103500.001577
103500.001532
103500.001487
103500.00144
103500.001392
103500.001343
103500.001293
103500.001241
103500.001189
103500.001135
103500.00108
103500.001024
103500.000968
103500.00091
103500.000851
103500.000792
103500.000731
103500.00067
103500.000608
103500.000546
103500.000482
103500.000418
103500.000354
103500.000288
103500.000222
103500.000156
103500.000089
103500.000021
103499.999952
103499.999883
103499.999812
103499.999741
103499.999669
103499.999595
103499.999521
103499.999444
103499.999367
103499.999287
103499.999205
103499.999121
103499.999035
103499.998947
103499.998855
103499.998762
103499.998665
103499.998566
103499.998465
103499.998361
103499.998256
103499.998148
103500.00227
103500.002269
103500.002266
103500.002261
103500.002255
103500.002247
103500.002239
103500.002229
103500.002217
103500.002205
103500.002191
103500.002175
103500.002159
103500.002141
103500.002122
103500.002102
103500.00208
103500.002057
103500.002032
103500.002006
103500.001979
103500.001951
103500.001921
103500.00189
103500.001857
103500.001823
103500.001787
103500.00175
103500.001712
103500.001673
103500.001632
103500.001589
103500.001546
103500.001501
103500.001455
103500.001407
103500.001359
103500.001309
103500.001258
103500.001205
103500.001152
103500.001098
103500.001042
103500.000985
103500.000928
103500.000869
103500.00081
103500.00075
103500.000688
103500.000626
103500.000563
103500.0005
103500.000435
103500.00037
103500.000304
103500.000237
103500.00017
103500.000101
103500.000032
103499.999962
103499.999891
103499.999819
103499.999746
103499.999672
103499.999597
103499.99952
103499.999442
103499.999362
103499.999281
103499.999198
103499.999113
103499.999026
103499.998937
103499.998847
103499.998754
103499.99866
103499.998563
103499.998465
103499.998366
103499.998266
103499.998164
103500.002274
103500.002272
103500.002269
103500.002265
103500.002259
103500.002251
103500.002243
103500.002233
103500.002222
103500.00221
103500.002196
103500.002181
103500.002165
103500.002147
103500.002129
103500.002108
103500.002087
103500.002064
103500.00204
103500.002015
103500.001988
103500.00196
103500.001931
103500.0019
103500.001868
103500.001834
103500.0018
103500.001763
103500.001726
103500.001687
103500.001646
103500.001605
103500.001562
103500.001517
103500.001472
103500.001425
103500.001377
103500.001327
103500.001277
103500.001225
103500.001172
103500.001118
103500.001063
103500.001007
103500.000949
103500.000891
103500.000832
103500.000772
103500.00071
103500.000648
103500.000585
103500.000521
103500.000457
103500.000391
103500.000324
103500.000257
103500.000189
103500.00012
103500.000049
103499.999978
103499.999906
103499.999833
103499.999759
103499.999684
103499.999607
103499.999529
103499.99945
103499.999369
103499.999287
103499.999204
103499.999119
103499.999033
103499.998945
103499.998855
103499.998764
103499.998672
103499.998579
103499.998485
103499.99839
103499.998294
103499.998198
103500.002278
103500.002277
103500.002274
103500.002269
103500.002263
103500.002256
103500.002248
103500.002238
103500.002227
103500.002215
103500.002202
103500.002187
103500.002172
103500.002154
103500.002136
103500.002116
103500.002096
103500.002073
103500.00205
103500.002025
103500.001999
103500.001971
103500.001943
103500.001913
103500.001881
103500.001848
103500.001814
103500.001778
103500.001741
103500.001703
103500.001663
103500.001622
103500.00158
103500.001536
103500.001492
103500.001445
103500.001398
103500.001349
103500.001299
103500.001248
103500.001196
103500.001142
103500.001087
103500.001032
103500.000975
103500.000917
103500.000858
103500.000798
103500.000737
103500.000675
103500.000612
103500.000548
103500.000483
103500.000417
103500.000351
103500.000283
103500.000214
103500.000145
103500.000074
103500.000002
103499.99993
103499.999856
103499.999781
103499.999705
103499.999628
103499.99955
103499.99947
103499.99939
103499.999308
103499.999225
103499.999141
103499.999056
103499.998969
103499.998882
103499.998793
103499.998704
103499.998614
103499.998523
103499.998432
103499.998341
103499.99825
103500.002284
103500.002282
103500.002279
103500.002275
103500.002269
103500.002262
103500.002254
103500.002244
103500.002234
103500.002222
103500.002209
103500.002195
103500.002179
103500.002163
103500.002145
103500.002126
103500.002105
103500.002084
103500.002061
103500.002037
103500.002011
103500.001984
103500.001956
103500.001927
103500.001896
103500.001864
103500.00183
103500.001796
103500.00176
103500.001722
103500.001683
103500.001643
103500.001601
103500.001559
103500.001515
103500.001469
103500.001422
103500.001374
103500.001325
103500.001275
103500.001223
103500.00117
103500.001116
103500.001061
103500.001005
103500.000948
103500.000889
103500.00083
103500.000769
103500.000707
103500.000645
103500.000581
103500.000516
103500.000451
103500.000384
103500.000316
103500.000247
103500.000178
103500.000107
103500.000035
103499.999963
103499.999889
103499.999814
103499.999738
103499.999661
103499.999584
103499.999505
103499.999425
103499.999344
103499.999262
103499.999179
103499.999096
103499.999011
103499.998926
103499.998841
103499.998755
103499.998668
103499.998581
103499.998494
103499.998407
103499.99832
103500.00229
103500.002288
103500.002285
103500.002281
103500.002275
103500.002268
103500.002261
103500.002251
103500.002241
103500.00223
103500.002217
103500.002203
103500.002188
103500.002172
103500.002155
103500.002137
103500.002117
103500.002096
103500.002074
103500.00205
103500.002025
103500.001999
103500.001972
103500.001943
103500.001913
103500.001882
103500.00185
103500.001816
103500.00178
103500.001744
103500.001706
103500.001667
103500.001626
103500.001584
103500.001541
103500.001497
103500.001451
103500.001404
103500.001356
103500.001306
103500.001255
103500.001203
103500.00115
103500.001096
103500.00104
103500.000984
103500.000926
103500.000867
103500.000807
103500.000746
103500.000684
103500.000621
103500.000557
103500.000491
103500.000425
103500.000358
103500.00029
103500.00022
103500.00015
103500.000079
103500.000007
103499.999934
103499.999859
103499.999784
103499.999708
103499.999632
103499.999554
103499.999475
103499.999396
103499.999316
103499.999235
103499.999154
103499.999072
103499.99899
103499.998908
103499.998825
103499.998742
103499.998659
103499.998576
103499.998493
103499.99841
103500.002296
103500.002295
103500.002292
103500.002288
103500.002282
103500.002276
103500.002268
103500.00226
103500.00225
103500.002239
103500.002227
103500.002213
103500.002199
103500.002183
103500.002167
103500.002149
103500.00213
103500.00211
103500.002088
103500.002066
103500.002042
103500.002017
103500.00199
103500.001962
103500.001933
103500.001903
103500.001872
103500.001839
103500.001805
103500.001769
103500.001732
103500.001694
103500.001655
103500.001614
103500.001572
103500.001528
103500.001484
103500.001438
103500.001391
103500.001342
103500.001293
103500.001242
103500.00119
103500.001136
103500.001082
103500.001026
103500.000969
103500.000912
103500.000853
103500.000792
103500.000731
103500.000669
103500.000606
103500.000541
103500.000476
103500.00041
103500.000342
103500.000274
103500.000205
103500.000134
103500.000063
103499.999991
103499.999918
103499.999845
103499.99977
103499.999695
103499.999619
103499.999543
103499.999466
103499.999388
103499.99931
103499.999232
103499.999153
103499.999074
103499.998995
103499.998915
103499.998836
103499.998757
103499.998678
103499.998599
103499.998521
103500.002304
103500.002303
103500.0023
103500.002296
103500.002291
103500.002285
103500.002277
103500.002269
103500.002259
103500.002249
103500.002237
103500.002225
103500.002211
103500.002196
103500.00218
103500.002163
103500.002145
103500.002126
103500.002105
103500.002083
103500.00206
103500.002036
103500.002011
103500.001984
103500.001956
103500.001927
103500.001897
103500.001865
103500.001832
103500.001798
103500.001762
103500.001725
103500.001687
103500.001648
103500.001607
103500.001565
103500.001522
103500.001477
103500.001431
103500.001384
103500.001336
103500.001286
103500.001235
103500.001183
103500.00113
103500.001076
103500.00102
103500.000964
103500.000906
103500.000847
103500.000787
103500.000726
103500.000664
103500.000601
103500.000537
103500.000472
103500.000406
103500.000339
103500.000272
103500.000203
103500.000134
103500.000063
103499.999993
103499.999921
103499.999849
103499.999776
103499.999702
103499.999628
103499.999554
103499.999479
103499.999404
103499.999329
103499.999253
103499.999178
103499.999102
103499.999027
103499.998951
103499.998876
103499.998801
103499.998726
103499.998652
103500.002313
103500.002312
103500.002309
103500.002305
103500.0023
103500.002294
103500.002288
103500.00228
103500.002271
103500.002261
103500.00225
103500.002238
103500.002225
103500.002211
103500.002196
103500.002179
103500.002162
103500.002144
103500.002124
103500.002103
103500.002082
103500.002059
103500.002034
103500.002009
103500.001982
103500.001954
103500.001925
103500.001895
103500.001863
103500.00183
103500.001796
103500.001761
103500.001724
103500.001686
103500.001647
103500.001606
103500.001565
103500.001522
103500.001477
103500.001432
103500.001385
103500.001337
103500.001288
103500.001238
103500.001186
103500.001133
103500.001079
103500.001024
103500.000968
103500.000911
103500.000853
103500.000794
103500.000733
103500.000672
103500.00061
103500.000547
103500.000483
103500.000418
103500.000353
103500.000286
103500.000219
103500.000151
103500.000083
103500.000014
103499.999944
103499.999874
103499.999803
103499.999732
103499.999661
103499.99959
103499.999518
103499.999446
103499.999374
103499.999303
103499.999231
103499.999159
103499.999088
103499.999016
103499.998945
103499.998875
103499.998804
103500.002324
103500.002322
103500.00232
103500.002316
103500.002311
103500.002306
103500.002299
103500.002292
103500.002283
103500.002274
103500.002264
103500.002253
103500.00224
103500.002227
103500.002213
103500.002198
103500.002181
103500.002164
103500.002146
103500.002126
103500.002105
103500.002084
103500.002061
103500.002037
103500.002012
103500.001985
103500.001958
103500.001929
103500.001899
103500.001867
103500.001835
103500.001801
103500.001766
103500.00173
103500.001692
103500.001654
103500.001614
103500.001572
103500.00153
103500.001486
103500.001441
103500.001395
103500.001348
103500.0013
103500.00125
103500.001199
103500.001148
103500.001095
103500.001041
103500.000986
103500.00093
103500.000872
103500.000814
103500.000756
103500.000696
103500.000635
103500.000574
103500.000511
103500.000448
103500.000385
103500.00032
103500.000255
103500.00019
103500.000124
103500.000057
103499.999991
103499.999923
103499.999856
103499.999788
103499.999721
103499.999653
103499.999585
103499.999517
103499.999449
103499.999381
103499.999313
103499.999246
103499.999179
103499.999112
103499.999046
103499.99898
103500.002335
103500.002334
103500.002331
103500.002328
103500.002324
103500.002318
103500.002312
103500.002306
103500.002298
103500.002289
103500.00228
103500.002269
103500.002258
103500.002246
103500.002232
103500.002218
103500.002203
103500.002187
103500.00217
103500.002152
103500.002132
103500.002112
103500.002091
103500.002068
103500.002044
103500.00202
103500.001994
103500.001967
103500.001938
103500.001909
103500.001878
103500.001846
103500.001813
103500.001779
103500.001744
103500.001707
103500.001669
103500.00163
103500.00159
103500.001548
103500.001505
103500.001462
103500.001417
103500.00137
103500.001323
103500.001275
103500.001225
103500.001175
103500.001124
103500.001071
103500.001018
103500.000963
103500.000908
103500.000852
103500.000795
103500.000737
103500.000679
103500.000619
103500.00056
103500.000499
103500.000438
103500.000377
103500.000315
103500.000252
103500.000189
103500.000126
103500.000063
103499.999999
103499.999936
103499.999872
103499.999808
103499.999744
103499.999681
103499.999617
103499.999554
103499.99949
103499.999427
103499.999364
103499.999302
103499.99924
103499.999178
103500.002348
103500.002347
103500.002345
103500.002341
103500.002337
103500.002333
103500.002327
103500.002321
103500.002314
103500.002306
103500.002297
103500.002288
103500.002277
103500.002266
103500.002254
103500.002241
103500.002227
103500.002213
103500.002197
103500.00218
103500.002162
103500.002144
103500.002124
103500.002103
103500.002081
103500.002058
103500.002034
103500.002009
103500.001983
103500.001955
103500.001927
103500.001897
103500.001866
103500.001834
103500.001801
103500.001766
103500.001731
103500.001694
103500.001656
103500.001617
103500.001577
103500.001536
103500.001494
103500.00145
103500.001406
103500.00136
103500.001314
103500.001266
103500.001218
103500.001168
103500.001118
103500.001067
103500.001015
103500.000962
103500.000908
103500.000854
103500.000799
103500.000743
103500.000687
103500.00063
103500.000573
103500.000515
103500.000457
103500.000399
103500.00034
103500.000281
103500.000222
103500.000163
103500.000104
103500.000044
103499.999985
103499.999925
103499.999866
103499.999807
103499.999748
103499.999689
103499.999631
103499.999573
103499.999515
103499.999457
103499.9994
103500.002363
103500.002362
103500.002359
103500.002356
103500.002353
103500.002349
103500.002344
103500.002338
103500.002332
103500.002325
103500.002317
103500.002309
103500.002299
103500.002289
103500.002278
103500.002267
103500.002254
103500.002241
103500.002227
103500.002212
103500.002196
103500.002179
103500.002161
103500.002142
103500.002122
103500.002101
103500.002079
103500.002056
103500.002032
103500.002007
103500.00198
103500.001953
103500.001925
103500.001895
103500.001864
103500.001833
103500.0018
103500.001766
103500.001731
103500.001695
103500.001658
103500.001619
103500.00158
103500.00154
103500.001498
103500.001456
103500.001413
103500.001369
103500.001323
103500.001277
103500.001231
103500.001183
103500.001135
103500.001086
103500.001036
103500.000985
103500.000934
103500.000883
103500.000831
103500.000778
103500.000725
103500.000672
103500.000618
103500.000564
103500.00051
103500.000456
103500.000401
103500.000346
103500.000292