/*--------------------------------*- C++ -*----------------------------------*\
| =========                 |                                                 |
| \\      /  F ield         | OpenFOAM: The Open Source CFD Toolbox           |
|  \\    /   O peration     | Version:  2112                                  |
|   \\  /    A nd           | Website:  www.openfoam.com                      |
|    \\/     M anipulation  |                                                 |
\*---------------------------------------------------------------------------*/
FoamFile
{
    version     2.0;
    format      ascii;
    arch        "LSB;label=32;scalar=64";
    class       surfaceScalarField;
    location    "1";
    object      phi;
}
// * * * * * * * * * * * * * * * * * * * * * * * * * * * * * * * * * * * * * //

dimensions      [1 0 -1 0 0 0 0];

oriented        oriented;

internalField   nonuniform List<scalar> 
23692
(
2.32728919434e-06
-3.00082465198e-10
2.32776604333e-06
-4.75533968767e-10
2.32826788331e-06
-4.99632987492e-10
2.32861874979e-06
-3.47702734543e-10
2.32865600454e-06
-3.31737639659e-11
2.32826291374e-06
3.98108352019e-10
2.32739367788e-06
8.75354171145e-10
2.32607867194e-06
1.32225426224e-09
2.32440827453e-06
1.67886032226e-09
2.32250397962e-06
1.91402928402e-09
2.32048857789e-06
2.02646453904e-09
2.31846440054e-06
2.03664398872e-09
2.31650310767e-06
1.97529985039e-09
2.31464560705e-06
1.87305919277e-09
2.31290829947e-06
1.75450638138e-09
2.31129150098e-06
1.63571163529e-09
2.30978723554e-06
1.52499397858e-09
2.30838489558e-06
1.42489475985e-09
2.30707465474e-06
1.33472495883e-09
2.30584893325e-06
1.25216814862e-09
2.30470266442e-06
1.17477147687e-09
2.30363288853e-06
1.1003294731e-09
2.3026381589e-06
1.02740808714e-09
2.30171790322e-06
9.55042884284e-10
2.30087196985e-06
8.82936736832e-10
2.30010025115e-06
8.10934557388e-10
2.29940247782e-06
7.39187316792e-10
2.29877810739e-06
6.67975172079e-10
2.29822624252e-06
5.97699392005e-10
2.29774561804e-06
5.28650469357e-10
2.29733459549e-06
4.6124415713e-10
2.29699111365e-06
3.95835767463e-10
2.29671271399e-06
3.32863359617e-10
2.29649650673e-06
2.72801954823e-10
2.29633911659e-06
2.16016311769e-10
2.29623667465e-06
1.63035713781e-10
2.29618475324e-06
1.14450697418e-10
2.29617831433e-06
7.08891020276e-11
2.29621161159e-06
3.29385772755e-11
2.29627819597e-06
1.42113803739e-12
2.29637074096e-06
-2.28913148109e-11
2.29648105708e-06
-3.90246669264e-11
2.29659989699e-06
-4.60283583005e-11
2.29671692986e-06
-4.27887152016e-11
2.29682059079e-06
-2.805583195e-11
2.29689794886e-06
-4.56005235811e-13
2.29693459082e-06
4.14675710692e-11
2.2969144235e-06
9.93781634519e-11
2.29681951716e-06
1.75150640552e-10
2.29662987426e-06
2.70862987947e-10
2.29632312263e-06
3.88788892539e-10
2.2958742903e-06
5.3165963708e-10
2.29525536597e-06
7.02407455352e-10
2.2944348975e-06
9.04553529525e-10
2.29337744198e-06
1.14208311978e-09
2.29204286402e-06
1.41963774311e-09
2.29038558986e-06
1.74270232384e-09
2.28835351403e-06
2.11775848123e-09
2.28588679507e-06
2.55261319378e-09
2.28291620755e-06
3.05662461557e-09
2.27936107817e-06
3.64119221862e-09
2.27512669372e-06
4.32043248154e-09
2.27010081646e-06
5.11184950644e-09
2.26414917138e-06
6.03747458112e-09
2.25710941305e-06
7.12536381532e-09
2.24878296298e-06
8.41177044022e-09
2.23892379878e-06
9.94413035725e-09
2.22722285717e-06
1.17855283295e-08
2.21328580602e-06
1.40211803932e-08
2.19660105082e-06
1.67683799945e-08
2.17649251748e-06
2.01915981011e-08
2.15204885879e-06
2.45261155758e-08
2.12201521906e-06
3.01154451834e-08
2.08462473917e-06
3.74715997604e-08
2.03733180032e-06
4.73733065962e-08
1.97638596389e-06
6.10254369417e-08
1.89615375471e-06
8.03110053419e-08
1.78801531421e-06
1.08216406097e-07
1.63827513048e-06
1.49817284152e-07
1.42365854694e-06
2.14692842505e-07
3.28361609136e-07
1.0953723333e-06
2.49030199364e-06
-6.18446099846e-10
2.49081425285e-06
-9.86422453993e-10
2.49135615247e-06
-1.03918161257e-09
2.49173868327e-06
-7.26951073674e-10
2.49178780359e-06
-7.79467212722e-11
2.49137799047e-06
8.13434690209e-10
2.49045925362e-06
1.80069338854e-09
2.48906306639e-06
2.72626077038e-09
2.48728525927e-06
3.46574732374e-09
2.48525527403e-06
3.95440694907e-09
2.48310429065e-06
4.18931089882e-09
2.48094189166e-06
4.21243383676e-09
2.47884502475e-06
4.0871008946e-09
2.47685783982e-06
3.87686352223e-09
2.47499825651e-06
3.63244982026e-09
2.47326693105e-06
3.3872685789e-09
2.47165555713e-06
3.15847137418e-09
2.47015294657e-06
2.95164002896e-09
2.46874864631e-06
2.76520068173e-09
2.46743457014e-06
2.5945589586e-09
2.46620525806e-06
2.434541533e-09
2.4650574988e-06
2.28081440057e-09
2.46398966488e-06
2.13022009161e-09
2.46300108727e-06
1.98093215021e-09
2.46209151512e-06
1.83210034015e-09
2.46126077143e-06
1.68358955756e-09
2.46050851082e-06
1.53571376901e-09
2.45983410054e-06
1.38909875262e-09
2.45923651675e-06
1.24428803926e-09
2.45871437058e-06
1.10217743804e-09
2.45826586004e-06
9.63463269839e-10
2.45788875348e-06
8.2895706727e-10
2.45758038971e-06
6.99531864615e-10
2.45733762715e-06
5.76056427027e-10
2.45715684278e-06
4.59487438445e-10
2.45703387196e-06
3.50848208728e-10
2.4569639624e-06
2.51326028745e-10
2.45694168695e-06
1.62082323287e-10
2.45696092028e-06
8.45938546146e-11
2.45701473356e-06
2.03584387524e-11
2.45709531497e-06
-2.89038111679e-11
2.45719389351e-06
-6.13459201384e-11
2.45730061794e-06
-7.48617131985e-11
2.45740447686e-06
-6.71861618096e-11
2.4574931474e-06
-3.57949324737e-11
2.45755286016e-06
2.20951515768e-11
2.45756829831e-06
1.09576621697e-10
2.45752237781e-06
2.30053804506e-10
2.45739606766e-06
3.87300633836e-10
2.45716815819e-06
5.8560323009e-10
2.45681501171e-06
8.29728014171e-10
2.45631018261e-06
1.12506591351e-09
2.45562413616e-06
1.47782110632e-09
2.45472369923e-06
1.89497976312e-09
2.45357157293e-06
2.38476160018e-09
2.45212562335e-06
2.95659134199e-09
2.45033808561e-06
3.6216208627e-09
2.44815452164e-06
4.39302598406e-09
2.44551254396e-06
5.28649272452e-09
2.44234024686e-06
6.32094556141e-09
2.43855418688e-06
7.51935756081e-09
2.4340567839e-06
8.90993872716e-09
2.42873303643e-06
1.05275927174e-08
2.42244620397e-06
1.24161022517e-08
2.41503220296e-06
1.46309573259e-08
2.40629205913e-06
1.72432122865e-08
2.39598191149e-06
2.03452292379e-08
2.38379933977e-06
2.40586134649e-08
2.36936471023e-06
2.85458247336e-08
2.35219526962e-06
3.40272945175e-08
2.33166904181e-06
4.08067098103e-08
2.30697437769e-06
4.930900748e-08
2.27703990986e-06
6.01374566986e-08
2.24043951332e-06
7.41587847664e-08
2.19527088891e-06
9.26279620125e-08
2.1390234861e-06
1.17358017509e-07
2.06850969366e-06
1.50909129384e-07
1.98009215358e-06
1.96717371972e-07
1.8709266309e-06
2.59065320204e-07
1.74434187093e-06
3.41359160489e-07
4.33313695747e-07
1.63947037643e-06
2.6647324847e-06
-9.55829444247e-10
2.66528373262e-06
-1.53617665049e-09
2.66587006425e-06
-1.62302087409e-09
2.66629165781e-06
-1.14493450932e-09
2.66636253411e-06
-1.44144064495e-10
2.66594764914e-06
1.2341122545e-09
2.66499165991e-06
2.76374314897e-09
2.66352561626e-06
4.20064485635e-09
2.66164937391e-06
5.35167720577e-09
2.65949932439e-06
6.11562610418e-09
2.65721462637e-06
6.48670754519e-09
2.65491230833e-06
6.52905564333e-09
2.65267522554e-06
6.34017736465e-09
2.65055158016e-06
6.01832224958e-09
2.64856163896e-06
5.64211665271e-09
2.64670707406e-06
5.26343870549e-09
2.64497977873e-06
4.90949354e-09
2.64336826024e-06
4.58900128406e-09
2.64186160123e-06
4.29987429241e-09
2.64045120923e-06
4.03525884926e-09
2.63913119237e-06
3.78719961413e-09
2.63789796451e-06
3.5490064037e-09
2.63674962388e-06
3.31591538096e-09
2.63568526797e-06
3.08513715677e-09
2.63470445481e-06
2.85528568227e-09
2.6338068303e-06
2.62608897548e-09
2.63299188605e-06
2.3980661325e-09
2.63225879588e-06
2.17207582659e-09
2.63160638793e-06
1.94918420969e-09
2.63103304938e-06
1.73045636886e-09
2.63053677011e-06
1.5171838609e-09
2.63011508308e-06
1.310572262e-09
2.62976505575e-06
1.11191949372e-09
2.62948326994e-06
9.22593322751e-10
2.62926578274e-06
7.44063164273e-10
2.62910809049e-06
5.77930435147e-10
2.6290050288e-06
4.25935323912e-10
2.62895078784e-06
2.90069914267e-10
2.62893875769e-06
1.72445238113e-10
2.62896152096e-06
7.54318182227e-11
2.62901070246e-06
1.6348619505e-12
2.62907694848e-06
-4.59847749626e-11
2.6291497447e-06
-6.43316955784e-11
2.62921738049e-06
-4.9812307542e-11
2.62926676484e-06
1.39443568196e-12
2.62928331082e-06
9.35850614529e-11
2.62925081036e-06
2.31502567714e-10
2.62915122101e-06
4.20333399439e-10
2.62896449878e-06
6.65895675192e-10
2.62866832139e-06
9.74701952453e-10
2.62823789341e-06
1.35407914212e-09
2.62764555428e-06
1.81221674674e-09
2.62686043513e-06
2.3584911646e-09
2.62584805316e-06
3.00364486943e-09
2.62456967683e-06
3.75997480868e-09
2.62298178656e-06
4.64183476978e-09
2.62103521741e-06
5.66597878683e-09
2.618674191e-06
6.85214954986e-09
2.61583516857e-06
8.22385291166e-09
2.6124453459e-06
9.80924765281e-09
2.60842087389e-06
1.16424023197e-08
2.60366448325e-06
1.37648334136e-08
2.5980627384e-06
1.62277668624e-08
2.59148233242e-06
1.90948024072e-08
2.5837654794e-06
2.24458077166e-08
2.57472416727e-06
2.63822116563e-08
2.56413265758e-06
3.10340579546e-08
2.55171806416e-06
3.65700469463e-08
2.5371486464e-06
4.32115955544e-08
2.52001923955e-06
5.12524702546e-08
2.49983443224e-06
6.10866294213e-08
2.47599088983e-06
7.32470066035e-08
2.44776354411e-06
8.8458485204e-08
2.41430824936e-06
1.0770698076e-07
2.37470870121e-06
1.32319562391e-07
2.32812826237e-06
1.64029630644e-07
2.27418349413e-06
2.04944148781e-07
2.21376839437e-06
2.57221764671e-07
2.15088479822e-06
3.22037213448e-07
2.09606407569e-06
3.9626714895e-07
4.63181626686e-07
2.06628234567e-06
2.85138142625e-06
-1.31419276225e-09
2.85197451272e-06
-2.12768219797e-09
2.85261115854e-06
-2.25695408867e-09
2.85308120982e-06
-1.61119473998e-09
2.85318697344e-06
-2.44918058755e-10
2.85278321215e-06
1.64413451999e-09
2.85180771075e-06
3.74672243436e-09
2.85028907454e-06
5.72821128274e-09
2.8483291548e-06
7.3219920606e-09
2.84606976954e-06
8.38693319335e-09
2.84365734137e-06
8.9126497602e-09
2.84121643618e-06
8.98523083064e-09
2.83883652202e-06
8.7372151077e-09
2.83657086465e-06
8.30299322632e-09
2.83444315012e-06
7.79087002638e-09
2.83245702658e-06
7.27273012383e-09
2.83060523365e-06
6.78662570088e-09
2.82887643671e-06
6.34537258189e-09
2.82725946806e-06
5.94681317227e-09
2.8257452677e-06
5.58179175501e-09
2.82432745622e-06
5.23986067428e-09
2.82300196872e-06
4.91189270706e-09
2.82176648522e-06
4.59146712485e-09
2.82061971313e-06
4.27455451345e-09
2.81956088575e-06
3.95938271472e-09
2.81858936286e-06
3.64560592939e-09
2.81770435252e-06
3.33378665758e-09
2.81690476264e-06
3.02505780138e-09
2.81618914879e-06
2.72086708967e-09
2.81555564788e-06
2.42276926957e-09
2.81500194189e-06
2.13235449773e-09
2.81452526635e-06
1.8513431252e-09
2.81412236481e-06
1.58151434892e-09
2.81378947558e-06
1.3247346196e-09
2.81352228361e-06
1.08301452183e-09
2.81331587138e-06
8.58536629142e-10
2.81316465013e-06
6.53755703354e-10
2.81306232409e-06
4.71276197044e-10
2.81300178578e-06
3.14088209497e-10
2.81297506829e-06
1.85409776589e-10
2.81297322871e-06
8.88198451968e-11
2.81298625225e-06
2.82448502404e-11
2.8130030053e-06
8.06521167342e-12
2.81301103506e-06
3.3054964798e-11
2.81299652478e-06
1.08493590855e-10
2.81294410722e-06
2.40179020483e-10
2.81283673885e-06
4.34482914015e-10
2.81265553262e-06
6.98519757317e-10
2.81237956069e-06
1.04013459193e-09
2.81198559748e-06
1.46808926092e-09
2.81144791597e-06
1.99221616893e-09
2.81073796897e-06
2.62357925519e-09
2.80982402105e-06
3.37471381485e-09
2.80867074789e-06
4.25991493125e-09
2.8072387493e-06
5.29561120927e-09
2.80548397289e-06
6.5008008699e-09
2.80335698033e-06
7.89758434766e-09
2.80080214748e-06
9.51192918421e-09
2.79775664618e-06
1.13745565764e-08
2.79414923246e-06
1.35220280903e-08
2.78989878773e-06
1.59982633845e-08
2.78491259356e-06
1.88564639027e-08
2.77908420583e-06
2.21614734126e-08
2.77229100901e-06
2.59931191517e-08
2.7643913287e-06
3.04503657715e-08
2.75522110892e-06
3.56569718831e-08
2.7445903359e-06
4.17689432756e-08
2.73227950664e-06
4.8984513361e-08
2.71803679205e-06
5.75574008592e-08
2.70157741875e-06
6.78143266289e-08
2.68258817485e-06
8.01776799282e-08
2.6607424391e-06
9.51937975486e-08
2.63573576691e-06
1.13565436951e-07
2.60735965102e-06
1.36182523324e-07
2.57564336713e-06
1.6413437128e-07
2.5411082456e-06
1.9866234829e-07
2.50518572618e-06
2.40963269283e-07
2.47083040583e-06
2.91672660607e-07
2.44323187743e-06
3.49730226263e-07
2.42952295455e-06
4.10069467498e-07
4.59843496969e-07
2.43295331919e-06
3.05110449514e-06
-1.69532859313e-09
3.05174289929e-06
-2.7643742643e-09
3.05243682191e-06
-2.9479853694e-09
3.05296681405e-06
-2.13710616605e-09
3.05312401915e-06
-3.96734632339e-10
3.05275238534e-06
2.02239075404e-09
3.05178106533e-06
4.7261452012e-09
3.05023362228e-06
7.28515633682e-09
3.04821125106e-06
9.35542355014e-09
3.04585911521e-06
1.07518105015e-08
3.04332980693e-06
1.14564386783e-08
3.04075536925e-06
1.15760519739e-08
3.03823264039e-06
1.12782616782e-08
3.03582118003e-06
1.0734756485e-08
3.03354941722e-06
1.00851395002e-08
3.03142414989e-06
9.42280621642e-09
3.02943987013e-06
8.79799774323e-09
3.02758599032e-06
8.22878674335e-09
3.02585137634e-06
7.71346046144e-09
3.02422662297e-06
7.24120833496e-09
3.02270479091e-06
6.79896213225e-09
3.02128122794e-06
6.3754456944e-09
3.01995300059e-06
5.96243400055e-09
3.01871829866e-06
5.55485626334e-09
3.0175758583e-06
5.15028764022e-09
3.01652459331e-06
4.74820600855e-09
3.01556331072e-06
4.34926841801e-09
3.01469055093e-06
3.95490167408e-09
3.01390450615e-06
3.5668998596e-09
3.01320294881e-06
3.18719382516e-09
3.01258320824e-06
2.81781913037e-09
3.01204213897e-06
2.46097704992e-09
3.01157609817e-06
2.11889392272e-09
3.01118091748e-06
1.79398645621e-09
3.01085184261e-06
1.48881581144e-09
3.01058350414e-06
1.20625853479e-09
3.01036980146e-06
9.49327121421e-10
3.01020395019e-06
7.21504388655e-10
3.01007827982e-06
5.26506140355e-10
3.00998424619e-06
3.68471823898e-10
3.00991229814e-06
2.51982235593e-10
3.00985180466e-06
1.82073301646e-10
3.00979096976e-06
1.64249344298e-10
3.00971666564e-06
2.04621570617e-10
3.00961439094e-06
3.0980555596e-10
3.00946807609e-06
4.87197404588e-10
3.00926001329e-06
7.44853613089e-10
3.00897060372e-06
1.09169193418e-09
3.00857827004e-06
1.53757577985e-09
3.00805918095e-06
2.09350673447e-09
3.00738708242e-06
2.77177156464e-09
3.00653299162e-06
3.58613912602e-09
3.00546490272e-06
4.5521700917e-09
3.00414745357e-06
5.6875348967e-09
3.00254150059e-06
7.01242556427e-09
3.00060364469e-06
8.55007835434e-09
2.99828571205e-06
1.03274143031e-08
2.99553412346e-06
1.23758139548e-08
2.9922891444e-06
1.4732086216e-08
2.98848411251e-06
1.74397750506e-08
2.98404454734e-06
2.05506514829e-08
2.97888709983e-06
2.41266919708e-08
2.9729186498e-06
2.82426122839e-08
2.96603525183e-06
3.29889962218e-08
2.95812150804e-06
3.84763272589e-08
2.94905025268e-06
4.48400809039e-08
2.93868342842e-06
5.22471720485e-08
2.92687476438e-06
6.09040641987e-08
2.91347582914e-06
7.1066662104e-08
2.8983477461e-06
8.30520687956e-08
2.88138258129e-06
9.72518013188e-08
2.86254013254e-06
1.14144418423e-07
2.84190924554e-06
1.34303663502e-07
2.81980567438e-06
1.58392524854e-07
2.79692070673e-06
1.87124814935e-07
2.77452881961e-06
2.21158736806e-07
2.75473436336e-06
2.60861153855e-07
2.74065815996e-06
3.05851210336e-07
2.73626695175e-06
3.54222626023e-07
2.74502509843e-06
4.01411331423e-07
4.39138598856e-07
2.76582877104e-06
3.26481731951e-06
-2.10105527549e-09
3.26550496467e-06
-3.4502120718e-09
3.26626413058e-06
-3.70410332704e-09
3.26686749012e-06
-2.73607593265e-09
3.26709594835e-06
-6.19514890656e-10
3.26678216204e-06
2.34327941059e-09
3.26584461635e-06
5.67223965169e-09
3.26429882095e-06
8.84117009069e-09
3.26224201731e-06
1.14240741134e-08
3.2598200515e-06
1.3187398635e-08
3.25719018735e-06
1.4101834003e-08
3.25449166934e-06
1.42920208795e-08
3.25182948371e-06
1.39599983881e-08
3.24927086928e-06
1.33151992311e-08
3.24685052104e-06
1.25295335544e-08
3.24457980829e-06
1.17199500574e-08
3.24245610666e-06
1.09506912948e-08
3.24047028303e-06
1.02461742301e-08
3.23861166892e-06
9.60635692956e-09
3.23687063366e-06
9.0192267009e-09
3.23523969169e-06
8.4698072856e-09
3.23371344643e-06
7.94449547872e-09
3.23228819694e-06
7.43339125483e-09
3.23096140619e-06
6.93036331599e-09
3.2297311439e-06
6.43232376862e-09
3.22859571589e-06
5.9384581295e-09
3.22755339494e-06
5.44954105866e-09
3.22660222708e-06
4.96714048559e-09
3.22573993003e-06
4.49335639432e-09
3.22496382449e-06
4.03049470647e-09
3.22427080957e-06
3.58113283951e-09
3.22365727921e-06
3.14777347114e-09
3.22311914436e-06
2.7332775467e-09
3.22265175667e-06
2.34054028126e-09
3.22224988771e-06
1.97276288231e-09
3.22190761881e-06
1.63334741385e-09
3.22161835551e-06
1.32615371298e-09
3.2213747325e-06
1.05534243131e-09
3.22116850842e-06
8.25471136076e-10
3.22099055493e-06
6.4164314673e-10
3.22083071466e-06
5.09405753485e-10
3.22067773985e-06
4.34852886817e-10
3.22051924341e-06
4.24727851794e-10
3.22034146154e-06
4.86341019916e-10
3.22012935911e-06
6.27822299566e-10
3.21986630229e-06
8.57953394682e-10
3.21953409327e-06
1.18645073103e-09
3.21911270436e-06
1.62400726601e-09
3.21858024242e-06
2.18242231968e-09
3.21791269528e-06
2.8747840847e-09
3.21708378077e-06
3.7156169463e-09
3.21606475283e-06
4.72118881662e-09
3.21482412823e-06
5.90976824498e-09
3.21332748878e-06
7.30200482419e-09
3.21153716381e-06
8.92131696317e-09
3.20941193349e-06
1.07944987862e-08
3.20690671389e-06
1.29523319589e-08
3.20397222213e-06
1.54304049068e-08
3.2005546518e-06
1.82700602503e-08
3.19659536048e-06
2.15196518558e-08
3.19203069833e-06
2.52359677579e-08
3.18679193696e-06
2.94860901107e-08
3.18080556518e-06
3.43495337951e-08
3.17399396768e-06
3.9920931316e-08
3.16627706824e-06
4.63133042172e-08
3.15757504472e-06
5.36617827404e-08
3.14781328274e-06
6.21281728742e-08
3.13693020992e-06
7.19058476014e-08
3.1248898505e-06
8.32250798237e-08
3.1117014465e-06
9.63578702366e-08
3.09744886642e-06
1.1162098704e-07
3.08233432579e-06
1.2937475284e-07
3.06674028958e-06
1.50012591967e-07
3.05131340053e-06
1.73933377061e-07
3.03706831053e-06
2.0148285097e-07
3.02549579714e-06
2.32843133373e-07
3.01862615457e-06
2.67841569265e-07
3.01893611348e-06
3.05650858226e-07
3.02888568668e-06
3.44381468212e-07
3.04974004523e-06
3.80664101213e-07
4.09579864939e-07
3.07940462619e-06
3.49349962395e-06
-2.53320066002e-09
3.49424068469e-06
-4.18926679069e-09
3.49507376496e-06
-4.53388738646e-09
3.49576539069e-06
-3.4230933448e-09
3.49608753983e-06
-9.35580754855e-10
3.49586123747e-06
2.57719218936e-09
3.49499224371e-06
6.55046086405e-09
3.49348459341e-06
1.03596690726e-08
3.49142783155e-06
1.34935179248e-08
3.48896529333e-06
1.56644931817e-08
3.48625695394e-06
1.68266935947e-08
3.48344877074e-06
1.71189002688e-08
3.48065454114e-06
1.67751369619e-08
3.47795058257e-06
1.60424092235e-08
3.47537960176e-06
1.51262145014e-08
3.47295912112e-06
1.41687289036e-08
3.47069065534e-06
1.32501027964e-08
3.46856745226e-06
1.24031150507e-08
3.46657979284e-06
1.16306215152e-08
3.46471808948e-06
1.09205336622e-08
3.46297426321e-06
1.02561990831e-08
3.46134210091e-06
9.62235039149e-09
3.45981696891e-06
9.007422179e-09
3.45839538912e-06
8.40407236629e-09
3.45707457682e-06
7.80848711075e-09
3.45585207879e-06
7.21961458321e-09
3.45472545738e-06
6.63810085105e-09
3.45369214517e-06
6.06568227919e-09
3.45274927168e-06
5.50475539077e-09
3.45189364288e-06
4.95798176751e-09
3.4511215794e-06
4.42824844814e-09
3.45042901269e-06
3.91869023742e-09
3.44981129861e-06
3.43250483103e-09
3.44926327472e-06
2.97320900835e-09
3.4487791444e-06
2.54457194786e-09
3.44835246758e-06
2.1507330384e-09
3.44797606439e-06
1.79616166585e-09
3.44764198085e-06
1.48584025223e-09
3.44734142263e-06
1.22518711702e-09
3.44706465784e-06
1.02018273184e-09
3.44680095836e-06
8.77390857072e-10
3.44653854762e-06
8.03967610289e-10
3.44626448215e-06
8.07791749842e-10
3.44596457417e-06
8.97430009533e-10
3.44562333638e-06
1.08226827576e-09
3.44522384577e-06
1.37257979404e-09
3.44474769416e-06
1.7795795415e-09
3.44417478387e-06
2.31554647954e-09
3.44348336008e-06
2.99406140771e-09
3.44264975852e-06
3.82998825929e-09
3.44164837427e-06
4.83989682986e-09
3.44045149486e-06
6.04212799913e-09
3.43902918128e-06
7.4571937007e-09
3.43734914206e-06
9.10804422437e-09
3.43537664218e-06
1.10206179731e-08
3.43307437749e-06
1.32242475142e-08
3.43040246133e-06
1.57522892414e-08
3.42731840796e-06
1.86429025806e-08
3.42377733344e-06
2.193991611e-08
3.41973215281e-06
2.56937975539e-08
3.41513425964e-06
2.9962956091e-08
3.40993434243e-06
3.4815092733e-08
3.40408397209e-06
4.03288606388e-08
3.39753793826e-06
4.65957448753e-08
3.39025769325e-06
5.37220056173e-08
3.38221667585e-06
6.18308689447e-08
3.37340785325e-06
7.10645584453e-08
3.36385479458e-06
8.15859181364e-08
3.35362706529e-06
9.35791810506e-08
3.3428617538e-06
1.07248812535e-07
3.33179248132e-06
1.22815098419e-07
3.32078710358e-06
1.40504100925e-07
3.31039419745e-06
1.60528509612e-07
3.30139531545e-06
1.83054274942e-07
3.29485313234e-06
2.08146000643e-07
3.29213346906e-06
2.35682633417e-07
3.2948577094e-06
2.65236003601e-07
3.30471226702e-06
2.95913725547e-07
3.3230158253e-06
3.26194076668e-07
3.34995828245e-06
3.53836494688e-07
3.76046938631e-07
3.3836046807e-06
3.73819970845e-06
-2.99351747604e-09
3.73899834514e-06
-4.98585603245e-09
3.73991419843e-06
-5.44624643899e-09
3.74070963563e-06
-4.21351363837e-09
3.74114927262e-06
-1.36866466189e-09
3.74104247414e-06
2.69210963532e-09
3.74028028838e-06
7.32249652435e-09
3.73885182029e-06
1.17997870879e-08
3.73683483769e-06
1.5524052275e-08
3.73436661465e-06
1.81482941702e-08
3.73160750493e-06
1.96035257308e-08
3.72870929558e-06
2.00370324001e-08
3.72579508636e-06
1.97117016989e-08
3.72295158968e-06
1.89106797279e-08
3.72023124908e-06
1.78740517602e-08
3.71765940375e-06
1.67708110115e-08
3.71524312631e-06
1.56994462473e-08
3.71297903587e-06
1.47032408803e-08
3.71085900069e-06
1.37897751143e-08
3.70887375128e-06
1.29480437575e-08
3.70701474882e-06
1.21607297339e-08
3.70527484773e-06
1.14110964006e-08
3.70364833785e-06
1.06861650805e-08
3.70213062429e-06
9.97739148764e-09
3.70071790209e-06
9.28033237856e-09
3.69940676305e-06
8.59340615942e-09
3.69819392516e-06
7.91711215865e-09
3.69707608465e-06
7.25328145967e-09
3.69604966256e-06
6.6044128057e-09
3.69511083295e-06
5.97357302851e-09
3.69425533412e-06
5.36401400328e-09
3.69347847512e-06
4.77924663418e-09
3.69277505982e-06
4.22301571306e-09
3.69213933562e-06
3.69936953536e-09
3.69156493666e-06
3.21270924283e-09
3.69104481531e-06
2.76774628543e-09
3.69057124638e-06
2.36975123223e-09
3.69013567545e-06
2.02443439807e-09
3.68972876001e-06
1.73805953682e-09
3.68934023442e-06
1.51748480927e-09
3.68895886367e-06
1.37019630738e-09
3.68857244347e-06
1.30443609474e-09
3.68816763346e-06
1.32909499186e-09
3.68772998773e-06
1.4538945636e-09
3.68724387033e-06
1.68942663391e-09
3.68669233183e-06
2.0472212293e-09
3.68605712592e-06
2.53980051243e-09
3.68531860834e-06
3.18089180654e-09
3.68445566708e-06
3.98544113297e-09
3.68344574431e-06
4.96991870574e-09
3.68226468233e-06
6.15233335053e-09
3.68088681789e-06
7.55262960063e-09
3.67928487189e-06
9.19286159285e-09
3.67743011365e-06
1.10975436604e-08
3.67529232443e-06
1.32940165048e-08
3.67283998982e-06
1.58128693639e-08
3.67004063325e-06
1.86885316895e-08
3.66686113463e-06
2.19597787999e-08
3.66326835873e-06
2.56704074618e-08
3.65923006968e-06
2.98700344556e-08
3.65471620317e-06
3.4614903135e-08
3.64970060732e-06
3.99687370085e-08
3.64416372168e-06
4.60037272538e-08
3.63809591609e-06
5.28012971028e-08
3.63150242587e-06
6.04529270284e-08
3.62440985659e-06
6.90604927026e-08
3.61687480272e-06
7.8736111551e-08
3.60899553927e-06
8.96011275271e-08
3.60092658808e-06
1.01783386397e-07
3.59289739042e-06
1.15412487875e-07
3.58523462118e-06
1.30611507226e-07
3.57838740846e-06
1.47484067559e-07
3.57295295003e-06
1.66094703668e-07
3.56969730582e-06
1.86440605285e-07
3.5695605867e-06
2.08412299558e-07
3.57362943497e-06
2.31742178134e-07
3.58305022492e-06
2.55942387509e-07
3.59884879997e-06
2.80241012804e-07
3.62162812285e-06
3.03539296326e-07
3.65115302582e-06
3.24434736226e-07
3.4137718827e-07
3.6859444977e-06
4.00003920469e-06
-3.48349728333e-09
4.0008992643e-06
-5.84363780811e-09
4.00190624102e-06
-6.44943234908e-09
4.00282042587e-06
-5.12238286874e-09
4.00340088145e-06
-1.94217521104e-09
4.00344563102e-06
2.6560786379e-09
4.00282937519e-06
7.94918893094e-09
4.00152307973e-06
1.31185408738e-08
3.99958873885e-06
1.74727925889e-08
3.99715384363e-06
2.05997826788e-08
3.99437646038e-06
2.23997616514e-08
3.99141299991e-06
2.30218134995e-08
3.98839590728e-06
2.27526405721e-08
3.98542339994e-06
2.19097465896e-08
3.98255912736e-06
2.07676521296e-08
3.97983789325e-06
1.95242907004e-08
3.97727374484e-06
1.8298895246e-08
3.97486773426e-06
1.71477505079e-08
3.97261402506e-06
1.60852246286e-08
3.97050408859e-06
1.51031284106e-08
3.96852905807e-06
1.4184362685e-08
3.96668086949e-06
1.33114100306e-08
3.96495262406e-06
1.24701483489e-08
3.96333851087e-06
1.16509726179e-08
3.96183349866e-06
1.0848512699e-08
3.96043309255e-06
1.00607044182e-08
3.95913304069e-06
9.28782898089e-09
3.95792914911e-06
8.53159854929e-09
3.95681708489e-06
7.79470742418e-09
3.95579227433e-06
7.08036568961e-09
3.95484979068e-06
6.392198183e-09
3.95398429672e-06
5.7341202427e-09
3.95318997686e-06
5.11037171702e-09
3.95246047725e-06
4.525513008e-09
3.9517888008e-06
3.98447209602e-09
3.95116736143e-06
3.49272520649e-09
3.95058784461e-06
3.05614174722e-09
3.95004116238e-06
2.68119772588e-09
3.94951747023e-06
2.37494588456e-09
3.94900606498e-06
2.14509303484e-09
3.94849536203e-06
2.00001494112e-09
3.94797284065e-06
1.94880243567e-09
3.94742502351e-06
2.00135544474e-09
3.946837463e-06
2.16839752377e-09
3.94619469271e-06
2.46152849838e-09
3.94548013943e-06
2.89327556789e-09
3.94467624826e-06
3.47728553241e-09
3.94376433541e-06
4.22830806671e-09
3.94272472127e-06
5.16236915578e-09
3.94153664441e-06
6.29690932439e-09
3.94017842568e-06
7.65096503315e-09
3.93862752396e-06
9.24532379035e-09
3.936860613e-06
1.11027244058e-08
3.93485395455e-06
1.32482327724e-08
3.93258349599e-06
1.57093862509e-08
3.93002546204e-06
1.85166176768e-08
3.92715682098e-06
2.17035475047e-08
3.92395605396e-06
2.53074218591e-08
3.92040425205e-06
2.93694703579e-08
3.91648645636e-06
3.39353583668e-08
3.91219348382e-06
3.90555253563e-08
3.90752439346e-06
4.47855021551e-08
3.9024895769e-06
5.11861002108e-08
3.897114907e-06
5.83233331053e-08
3.89144688256e-06
6.62679892303e-08
3.8855592422e-06
7.50947395831e-08
3.87956109265e-06
8.48803609763e-08
3.87360669491e-06
9.57009949829e-08
3.86790699868e-06
1.07627863014e-07
3.86274233968e-06
1.20721097075e-07
3.85847583358e-06
1.35021112165e-07
3.85556514287e-06
1.50536883772e-07
3.85457021278e-06
1.67230736147e-07
3.85615158234e-06
1.84999236009e-07
3.86105226603e-06
2.03650454473e-07
3.87005303276e-06
2.22878982061e-07
3.88388966653e-06
2.42242079597e-07
3.90312151132e-06
2.61144115714e-07
3.92795259625e-06
2.78841763429e-07
3.95803154231e-06
2.94487933842e-07
3.0723381102e-07
3.99230553992e-06
4.28021822468e-06
-4.00435177662e-09
4.28114285257e-06
-6.76593021075e-09
4.28224795271e-06
-7.55061370103e-09
4.28329374775e-06
-6.16244934482e-09
4.28403562426e-06
-2.67663690121e-09
4.28426098019e-06
2.43995002911e-09
4.28382724947e-06
8.39414705938e-09
4.28268460266e-06
1.42743432093e-08
4.28087583814e-06
1.92970523887e-08
4.27851503709e-06
2.29783187214e-08
4.27575519889e-06
2.5179778922e-08
4.27275567323e-06
2.60440487053e-08
4.26965786009e-06
2.58758901158e-08
4.26657199174e-06
2.50239301724e-08
4.26357408804e-06
2.37968598697e-08
4.26070975926e-06
2.24230229556e-08
4.25800131448e-06
2.10450339945e-08
4.25545528827e-06
1.97348418182e-08
4.25306893528e-06
1.85161110684e-08
4.25083492466e-06
1.73852795624e-08
4.24874434718e-06
1.63268277069e-08
4.24678831784e-06
1.53231205704e-08
4.2449587236e-06
1.43592398142e-08
4.24324844039e-06
1.34246826324e-08
4.24165114165e-06
1.25132039643e-08
4.24016113261e-06
1.1622122384e-08
4.23877306015e-06
1.07513173667e-08
4.23748178075e-06
9.90235172304e-09
4.23628208095e-06
9.07790993619e-09
4.23516861101e-06
8.28137661996e-09
4.23413571015e-06
7.51660982737e-09
4.23317736987e-06
6.78790129951e-09
4.23228711777e-06
6.09992669669e-09
4.23145797286e-06
5.45777088348e-09
4.230682394e-06
4.86693459334e-09
4.22995219781e-06
4.33344824538e-09
4.22925858307e-06
3.86386167474e-09
4.22859200093e-06
3.46531745028e-09
4.22794223289e-06
3.14560366113e-09
4.22729826765e-06
2.91315942811e-09
4.22664834102e-06
2.77709778039e-09
4.22597990568e-06
2.74735345803e-09
4.22527961794e-06
2.83458144951e-09
4.22453337697e-06
3.05025409066e-09
4.22372627886e-06
3.40673823073e-09
4.22284268655e-06
3.91736038088e-09
4.22186626364e-06
4.59643140271e-09
4.22078000342e-06
5.45932557934e-09
4.21956639518e-06
6.52266971604e-09
4.21820744794e-06
7.8043002115e-09
4.21668494137e-06
9.32351608889e-09
4.21498057311e-06
1.11011502526e-08
4.21307636033e-06
1.31597336145e-08
4.21095489904e-06
1.55236258672e-08
4.20859993618e-06
1.82192690649e-08
4.20599700809e-06
2.127530028e-08
4.20313428433e-06
2.47227490395e-08
4.20000354868e-06
2.85951647359e-08
4.19660167717e-06
3.29287941332e-08
4.192932234e-06
3.77625436661e-08
4.18900764111e-06
4.31379992199e-08
4.18485190388e-06
4.90991708731e-08
4.18050376719e-06
5.56920692033e-08
4.17602079047e-06
6.29639340553e-08
4.17148406422e-06
7.09620260979e-08
4.16700370723e-06
7.97319514058e-08
4.16272528359e-06
8.93151367547e-08
4.1588364624e-06
9.97454912053e-08
4.15557425434e-06
1.11045021893e-07
4.15323133499e-06
1.23218139297e-07
4.15216098795e-06
1.36244684033e-07
4.15277852275e-06
1.50071562309e-07
4.15555719472e-06
1.64603219792e-07
4.16101504365e-06
1.79691350029e-07
4.16968944315e-06
1.95124860146e-07
4.18209447687e-06
2.10621443647e-07
4.19865905261e-06
2.25823649729e-07
4.21964500259e-06
2.40302889933e-07
4.24505337334e-06
2.53576673139e-07
4.27453855457e-06
2.65144540298e-07
2.74546423201e-07
4.30736619447e-06