/*--------------------------------*- C++ -*----------------------------------*\
| =========                 |                                                 |
| \\      /  F ield         | OpenFOAM: The Open Source CFD Toolbox           |
|  \\    /   O peration     | Version:  2112                                  |
|   \\  /    A nd           | Website:  www.openfoam.com                      |
|    \\/     M anipulation  |                                                 |
\*---------------------------------------------------------------------------*/
FoamFile
{
    version     2.0;
    format      ascii;
    arch        "LSB;label=32;scalar=64";
    class       volScalarField;
    location    "1";
    object      T;
}
// * * * * * * * * * * * * * * * * * * * * * * * * * * * * * * * * * * * * * //

dimensions      [0 0 0 1 0 0 0];

internalField   nonuniform List<scalar> 
12013
(
300.000130329
300.000400491
300.000693485
300.001017807
300.001382002
300.001795165
300.002266656
300.002806354
300.003424616
300.0041323
300.004940802
300.005862046
300.006908481
300.008093069
300.009429264
300.010930987
300.012612588
300.014488811
300.016574747
300.018885787
300.021437578
300.024245962
300.027326934
300.030696582
300.034371039
300.038366434
300.04269884
300.047384234
300.05243845
300.057877144
300.063715759
300.069969492
300.076653274
300.083781748
300.091369249
300.099429805
300.107977123
300.117024596
300.126585312
300.136672064
300.147297374
300.158473516
300.170212553
300.182526376
300.195426751
300.208925378
300.223033953
300.237764241
300.253128166
300.269137903
300.285805988
300.303145447
300.321169935
300.339893903
300.359332789
300.379503234
300.400423342
300.422112977
300.444594124
300.467891305
300.492032094
300.517047727
300.542973853
300.569851466
300.597728053
300.626659068
300.656709806
300.687957866
300.720496418
300.754438639
300.789923882
300.827126459
300.866268559
300.9076399
300.951628936
300.998775019
301.049861344
301.106094363
301.169484936
301.243752105
301.336733184
300.000130305
300.00040042
300.000693359
300.001017622
300.001381752
300.001794837
300.002266241
300.002805837
300.003423981
300.004131529
300.004939875
300.005860938
300.006907164
300.008091514
300.009427437
300.01092885
300.0126101
300.014485925
300.016571412
300.018881948
300.021433172
300.024240924
300.027321189
300.03069005
300.034363635
300.038358062
300.042689398
300.047373611
300.052426527
300.057863791
300.063700834
300.069952845
300.07663474
300.083761147
300.091346391
300.099404479
300.107949102
300.116993634
300.126551141
300.136634391
300.147255879
300.158427851
300.170162335
300.182471185
300.195366124
300.208858804
300.222960866
300.237684015
300.2530401
300.269041217
300.285699806
300.303028784
300.321041678
300.339752791
300.359177385
300.379331893
300.400234173
300.421903792
300.444362379
300.467634023
300.491745766
300.516728189
300.542616122
300.569449525
300.597274567
300.626144991
300.656123846
300.687285724
300.719719696
300.753533227
300.788857496
300.825854773
300.86472886
300.90574019
300.949228127
300.995644297
301.045601965
301.099944251
301.159811432
301.226565793
301.300864406
300.000130252
300.00040026
300.000693082
300.001017213
300.001381196
300.00179411
300.00226532
300.002804691
300.003422573
300.00412982
300.004937817
300.005858479
300.006904244
300.008088064
300.009423384
300.01092411
300.01260458
300.014479522
300.016564013
300.01887343
300.0214234
300.024229748
300.027308449
300.030675571
300.034347224
300.038339514
300.04266849
300.047350101
300.052400152
300.057834268
300.063667859
300.069916087
300.076593843
300.083715726
300.091296028
300.099348722
300.107887462
300.116925578
300.126476089
300.136551714
300.147164887
300.158327791
300.17005238
300.182350427
300.195233563
300.208713333
300.22280126
300.237508912
300.252847984
300.268830389
300.285468363
300.302774581
300.320762293
300.339445472
300.358838998
300.378958849
300.399822342
300.4214484
300.443857871
300.467073902
300.491122378
300.516032454
300.541837183
300.568574287
300.596287084
300.625025639
300.65484819
300.685822931
300.718030278
300.751565741
300.786543623
300.82310172
300.861407271
300.901664169
300.944120922
300.989076912
301.036878949
301.087884741
301.142330842
301.199952072
301.259032244
300.000130166
300.000399994
300.000692622
300.001016533
300.001380272
300.001792903
300.00226379
300.002802787
300.003420235
300.004126981
300.004934399
300.005854393
300.006899391
300.008082334
300.00941665
300.010916234
300.012595408
300.014468884
300.016551722
300.01885928
300.021407166
300.024211185
300.027287288
300.030651522
300.034319971
300.038308714
300.042633773
300.047311064
300.052356363
300.057785259
300.063613124
300.069855079
300.076525972
300.083640353
300.091212462
300.099256215
300.107785201
300.116812683
300.126351601
300.136414587
300.147013982
300.158161858
300.169870052
300.1821502
300.19501378
300.208472165
300.22253668
300.237218668
300.252529567
300.268480996
300.285084851
300.302353412
300.320299471
300.338936468
300.358278653
300.378341265
300.399140742
300.420694959
300.443023503
300.466147995
300.490092462
300.514883771
300.540552139
300.567131734
300.594661375
300.623185365
300.65275447
300.683427057
300.715270421
300.748362262
300.782792251
300.818663459
300.856093111
300.895211495
300.936156514
300.979058748
301.024006671
301.070971837
301.119658868
301.169235871
301.21794867
300.000130038
300.0003996
300.000691942
300.001015528
300.001378908
300.001791122
300.002261531
300.002799975
300.003416783
300.004122789
300.004929352
300.005848361
300.006892228
300.008073873
300.009406709
300.010904607
300.012581868
300.01445318
300.016533578
300.018838393
300.021383203
300.024183785
300.027256056
300.030616026
300.034279747
300.038263256
300.042582533
300.047253452
300.052291739
300.057712931
300.063532345
300.069765043
300.076425806
300.083529116
300.091089133
300.099119689
300.107634281
300.116646067
300.126167874
300.136212208
300.146791269
300.157916971
300.169600975
300.181854718
300.194689455
300.208116304
300.222146304
300.23679047
300.252059867
300.267965684
300.284519323
300.301732496
300.319617331
300.338186498
300.357453344
300.377432048
300.398137789
300.41958695
300.441797329
300.464788391
300.48858155
300.513200476
300.53867145
300.565023746
300.592290044
300.620506879
300.64971507
300.67996012
300.711292487
300.743767567
300.777445136
300.812387734
300.848657139
300.886307376
300.925371603
300.965838654
301.007613101
301.050451567
301.093870368
301.13703399
301.178681045
300.000129862
300.000399055
300.000691001
300.001014139
300.001377019
300.001788657
300.002258403
300.002796083
300.003412006
300.004116987
300.004922367
300.005840014
300.006882314
300.008062166
300.009392953
300.010888518
300.012563133
300.014431452
300.016508475
300.018809494
300.021350051
300.024145876
300.027212845
300.03056692
300.034224099
300.038200368
300.042511648
300.04717375
300.052202334
300.057612868
300.06342059
300.06964048
300.076287228
300.083375218
300.090918503
300.098930799
300.107425473
300.116415543
300.125913677
300.135932207
300.146483141
300.157578176
300.169228731
300.181445971
300.194240846
300.207624129
300.221606466
300.236198429
300.251410575
300.267253513
300.28373798
300.300874917
300.318675568
300.33715157
300.356315066
300.376178825
300.396756366
300.418062104
300.440111497
300.462921208
300.486509275
300.510895277
300.536100499
300.562148077
300.589063097
300.61687262
300.645605567
300.675292389
300.705964369
300.737652332
300.770384434
300.804182483
300.839056014
300.87499297
300.9119454
300.949808233
300.988389598
301.027373588
301.066282484
301.104455561
301.141074504
300.000129627
300.000398331
300.000689749
300.001012293
300.001374508
300.001785381
300.002254248
300.002790912
300.003405659
300.00410928
300.004913089
300.005828926
300.006869147
300.008046616
300.009374682
300.010867151
300.012538252
300.014402597
300.016475138
300.018771119
300.021306027
300.024095539
300.027155469
300.030501716
300.034150211
300.038116867
300.042417528
300.047067924
300.052083627
300.057480009
300.063272206
300.069475087
300.076103226
300.083170873
300.090691943
300.098679994
300.107148224
300.116109463
300.125576173
300.135560458
300.146074069
300.157128422
300.168734618
300.180903467
300.19364552
300.206971101
300.220890349
300.235413258
300.25054973
300.266309629
300.282702834
300.299739308
300.317429159
300.335782719
300.354810609
300.374523826
300.394933815
300.416052549
300.437892602
300.460467216
300.48379034
300.507876658
300.532741553
300.558401013
300.584871429
300.612169236
300.64031033
300.669309142
300.699177247
300.729921261
300.761539761
300.794018836
300.827325789
300.861400511
300.896144114
300.931404784
300.96696173
301.002510174
301.037654208
301.071918155
301.104784963
300.000129324
300.000397396
300.000688132
300.00100991
300.001371264
300.00178115
300.002248882
300.002784234
300.003397462
300.004099328
300.00490111
300.00581461
300.006852147
300.008026541
300.009351096
300.010839569
300.012506135
300.014365351
300.016432109
300.018721589
300.02124921
300.024030575
300.027081423
300.03041757
300.03405486
300.038009113
300.042296074
300.046931367
300.051930449
300.057308571
300.063080738
300.069261676
300.075865804
300.082907207
300.090399617
300.098356394
300.106790518
300.115714579
300.125140775
300.135080919
300.145546437
300.156548386
300.168097466
300.180204039
300.192878153
300.206129568
300.219967785
300.234402081
300.249441543
300.265095108
300.2813716
300.298279774
300.315828358
300.334026088
300.35288175
300.372404213
300.392602447
300.413485542
300.435062695
300.457343183
300.480336282
300.504051149
300.528496617
300.553680886
300.57961108
300.606292594
300.633728184
300.661916699
300.69085134
300.720517306
300.75088865
300.781924192
300.813562322
300.845714729
300.878259321
300.911033132
300.943826613
300.976381544
301.008396063
301.039541188
301.069489404
300.000128941
300.000396214
300.000686086
300.001006895
300.001367161
300.001775799
300.002242095
300.002775788
300.003387097
300.004086743
300.004885962
300.00579651
300.006830654
300.008001163
300.009321281
300.010804704
300.012465541
300.014318277
300.016377728
300.018658995
300.021177408
300.023948483
300.026987857
300.030311246
300.033934382
300.037872969
300.042142625
300.04675884
300.051736929
300.057091988
300.062838857
300.068992083
300.075565891
300.082574157
300.090030385
300.097947685
300.106338765
300.115215916
300.12459101
300.134475494
300.144880395
300.155816326
300.167293492
300.179321706
300.191910398
300.205068641
300.218805163
300.233128369
300.248046364
300.263566975
300.279697765
300.296446059
300.31381895
300.331823311
300.350465792
300.369752805
300.389690499
300.410284702
300.431540842
300.453463824
300.476057854
300.499326197
300.523270838
300.547892028
300.573187675
300.599152542
300.625777192
300.653046639
300.680938626
300.709421479
300.738451507
300.767969931
300.797899443
300.828140606
300.85856859
300.889031008
300.919347925
300.949315155
300.978711973
301.007314262
301.034912048
300.000128463
300.000394742
300.000683537
300.001003143
300.001362052
300.001769137
300.002233647
300.002765277
300.003374199
300.004071084
300.004867116
300.005773992
300.006803918
300.007969596
300.009284198
300.010761343
300.012415057
300.014259738
300.016310108
300.018581166
300.021088138
300.023846424
300.026871541
300.030179077
300.033784627
300.037703748
300.041951904
300.04654442
300.051496431
300.056822843
300.062538291
300.068657102
300.075193262
300.082160389
300.089571705
300.097440017
300.105777698
300.114596676
300.12390842
300.133723939
300.144053774
300.154908
300.16629623
300.178227614
300.190710851
300.203754193
300.217365452
300.231552009
300.246320818
300.261678411
300.277630895
300.294183947
300.311342801
300.329112219
300.347496457
300.366499208
300.386123524
300.406371705
300.427245159
300.44874421
300.470867844
300.493613392
300.516976108
300.540948647
300.565520404
300.590676688
300.61639772
300.642657417
300.669421969
300.696648202
300.724281786
300.752255375
300.780486847
300.808877889
300.837313308
300.865661562
300.893777045
300.92150454
300.948685898
300.97516881
301.000816707
300.000127876
300.000392934
300.000680404
300.000998532
300.001355774
300.001760952
300.002223268
300.002752363
300.003358354
300.004051851
300.00484397
300.00574634
300.00677109
300.007930839
300.009238673
300.010708114
300.012353091
300.01418789
300.016227121
300.018485658
300.020978597
300.023721199
300.026728834
300.030016932
300.03360092
300.037496179
300.041717981
300.046281449
300.051201501
300.056492811
300.062169764
300.068246419
300.074736473
300.08165323
300.089009575
300.096817945
300.105090314
300.113838172
300.12307251
300.132803812
300.143042043
300.153796646
300.16507653
300.176890075
300.189245122
300.202148971
300.21560838
300.229629551
300.24421813
300.259379181
300.275117177
300.29143596
300.308338711
300.325827889
300.343905166
300.362571333
300.381826189
300.401668385
300.422095243
300.443102521
300.464684128
300.486831762
300.509534487
300.53277821
300.556545066
300.580812697
300.605553428
300.630733346
300.656311298
300.682237875
300.708454429
300.734892264
300.761472123
300.788104178
300.814688707
300.841117695
300.867277535
300.893052862
300.918331345
300.943009065
300.966995879
300.000127162
300.000390736
300.000676594
300.000992925
300.00134814
300.001751001
300.002210651
300.002736668
300.003339098
300.00402848
300.004815849
300.005712747
300.006731212
300.007883765
300.009183383
300.010643477
300.012277849
300.014100659
300.016126374
300.018369723
300.020845641
300.023569222
300.026555658
300.029820187
300.033378036
300.037244369
300.041434231
300.045962498
300.05084383
300.056092619
300.061722953
300.067748568
300.074182817
300.08103863
300.088328489
300.096064395
300.104257848
300.112919823
300.122060751
300.131690502
300.14181837
300.152453063
300.163602685
300.175274727
300.187476054
300.200212889
300.213490798
300.227314672
300.2416887
300.256616338
300.272100273
300.288142372
300.304743626
300.321904069
300.339622687
300.357897307
300.376724452
300.396099174
300.416014851
300.436462941
300.457432697
300.478910827
300.500881107
300.523323933
300.546215827
300.569528895
300.593230253
300.617281446
300.641637902
300.666248453
300.691055021
300.715992533
300.740989163
300.765967019
300.790843317
300.815532144
300.839946762
300.864002422
300.887619459
300.910726427
300.933262924
300.000126301
300.000388086
300.000672002
300.00098617
300.001338942
300.001739013
300.002195452
300.002717763
300.003315909
300.004000338
300.004781991
300.005672308
300.006683215
300.007827113
300.009116852
300.010565706
300.012187331
300.01399573
300.016005203
300.0182303
300.02068577
300.023386502
300.026347476
300.029583703
300.033110169
300.036941781
300.04109331
300.045579343
300.050414228
300.055612028
300.061186474
300.067150924
300.073518323
300.080301165
300.087511457
300.095160693
300.103259822
300.111819222
300.120848676
300.130357352
300.140353778
300.150845827
300.161840692
300.173344869
300.185364133
300.197903516
300.21096728
300.224558884
300.238680949
300.253335213
300.268522481
300.284242561
300.30049419
300.317274946
300.33458114
300.352407694
300.370747996
300.389593727
300.408934668
300.428758475
300.449050425
300.469793139
300.490966271
300.512546183
300.534505606
300.556813303
300.57943376
300.602326915
300.625447984
300.6487474
300.672170924
300.695659979
300.719152239
300.742582521
300.765883984
300.788989619
300.811833968
300.834355001
300.856495999
300.878207297
300.899447731
300.000125271
300.000384919
300.000666511
300.000978094
300.001327947
300.001724683
300.002177288
300.002695173
300.003288204
300.003966722
300.004741554
300.005624018
300.006625907
300.007759481
300.009037439
300.010472891
300.012079319
300.01387054
300.015860656
300.018064006
300.020495114
300.023168632
300.026099287
300.02930182
300.032790933
300.036581229
300.040687159
300.045122966
300.049902635
300.05503984
300.060547899
300.066439728
300.072727798
300.079424095
300.086540082
300.094086669
300.102074174
300.110512295
300.119410083
300.128775912
300.138617455
300.148941653
300.159754694
300.171061982
300.182868108
300.195176817
300.207990976
300.221312532
300.235142464
300.249480737
300.264326235
300.279676696
300.295528631
300.311877229
300.328716255
300.346037931
300.363832796
300.382089561
300.40079494
300.41993347
300.43948732
300.459436092
300.479756615
300.500422757
300.521405239
300.542671499
300.564185596
300.58590819
300.60779662
300.629805097
300.651885043
300.673985592
300.696054258
300.71803778
300.739883116
300.761538553
300.782954889
300.804086603
300.824892941
300.845338854
300.86539569
300.000124049
300.000381159
300.000659992
300.000968506
300.001314896
300.001707677
300.002155735
300.002668372
300.00325534
300.003926852
300.004693604
300.005566765
300.006557976
300.007679327
300.008943338
300.010362928
300.011951374
300.013722273
300.015689494
300.017867129
300.020269438
300.022910794
300.025805626
300.028968362
300.032413368
300.036154896
300.040207021
300.044583588
300.04929816
300.054363962
300.059793833
300.065600182
300.071794936
300.078389503
300.085394728
300.092820856
300.100677499
300.108973594
300.117717376
300.126916343
300.136577227
300.146705958
300.157307635
300.168386492
300.179945864
300.191988146
300.204514756
300.217526088
300.231021462
300.244999068
300.259455908
300.274387721
300.289788909
300.305652454
300.321969819
300.338730852
300.355923671
300.373534552
300.391547808
300.409945665
300.428708143
300.44781295
300.467235378
300.486948238
300.506921817
300.527123891
300.547519785
300.568072512
300.588742996
300.609490381
300.630272445
300.65104611
300.671768049
300.692395368
300.71288635
300.733201219
300.753302893
300.773157681
300.79273588
300.812012249
300.830966313
300.000122607
300.000376723
300.000652302
300.000957199
300.001299505
300.001687624
300.002130325
300.002636783
300.00321661
300.003879877
300.004637119
300.005499337
300.006477986
300.007584964
300.00883258
300.010233526
300.011800842
300.013547869
300.015488204
300.017635649
300.020004158
300.022607779
300.025460596
300.028576672
300.031969989
300.035654388
300.039643513
300.043950752
300.048589182
300.053571515
300.058910049
300.064616611
300.070702519
300.077178527
300.08405479
300.091340816
300.099045431
300.107176738
300.115742082
300.124748012
300.134200248
300.144103644
300.15446215
300.165278781
300.176555572
300.188293542
300.200492651
300.213151752
300.226268543
300.239839515
300.253859892
300.268323574
300.283223069
300.298549422
300.314292146
300.330439148
300.34697665
300.363889123
300.381159214
300.398767687
300.416693378
300.434913167
300.453401969
300.472132765
300.491076663
300.510203004
300.529479527
300.548872579
300.568347392
300.58786842
300.60739973
300.626905444
300.646350225
300.665699782
300.684921379
300.70398433
300.722860453
300.741524459
300.759954263
300.778131193
300.796040101
300.000120916
300.000371523
300.000643287
300.000943945
300.001281467
300.001664126
300.002100554
300.002599778
300.003171252
300.003824874
300.004570995
300.00542042
300.00638439
300.007474576
300.008703042
300.010082221
300.011624873
300.013344045
300.015253019
300.017365263
300.019694376
300.022254033
300.025057921
300.028119684
300.031452862
300.035070829
300.038986737
300.043213454
300.047763507
300.052649032
300.057881711
300.063472729
300.06943272
300.075771717
300.082499114
300.089623612
300.097153187
300.105095039
300.113455562
300.122240301
300.131453912
300.14110013
300.151181727
300.161700478
300.172657117
300.184051304
300.195881579
300.208145325
300.220838719
300.23395669
300.247492874
300.261439563
300.275787661
300.290526638
300.30564448
300.321127655
300.336961072
300.353128056
300.369610332
300.386388019
300.403439649
300.420742202
300.438271168
300.45600064
300.473903439
300.491951272
300.510114932
300.528364533
300.546669779
300.565000271
300.583325835
300.601616866
300.619844689
300.637981905
300.656002724
300.673883268
300.691601829
300.709139076
300.726478196
300.743604975
300.76050781
300.000118945
300.000365463
300.000632781
300.000928501
300.001260449
300.001636752
300.002065879
300.002556687
300.003118445
300.003760855
300.004494053
300.005328615
300.006275539
300.00734623
300.008552473
300.0099064
300.011420452
300.013107336
300.014979972
300.017051447
300.019334955
300.021843742
300.024591045
300.027590032
300.030853742
300.034395022
300.038226467
300.042360362
300.046808622
300.051582736
300.05669371
300.062152017
300.067967541
300.074149533
300.08070656
300.087646459
300.094976297
300.102702326
300.110829941
300.119363647
300.128307014
300.137662642
300.147432128
300.157616023
300.168213805
300.179223836
300.190643333
300.202468328
300.214693642
300.227312846
300.240318233
300.253700787
300.267450164
300.281554662
300.296001215
300.310775379
300.325861335
300.341241907
300.356898582
300.372811558
300.3889598
300.405321128
300.421872315
300.438589216
300.455446921
300.472419927
300.489482341
300.506608092
300.523771175
300.540945891
300.558107105
300.575230495
300.592292797
300.609272032
300.626147709
300.642900997
300.659514861
300.675974158
300.692265691
300.708378222
300.72430244
300.000116661
300.00035844
300.000620607
300.000910607
300.001236103
300.001605049
300.00202573
300.002506805
300.003057332
300.003686784
300.004405056
300.005222458
300.006149708
300.00719791
300.008378527
300.009703349
300.011184451
300.012834153
300.014664966
300.016689541
300.018920615
300.02137095
300.024053274
300.026980221
300.030164267
300.033617669
300.037352407
300.041380116
300.045712036
300.050358947
300.055331115
300.060638241
300.066289403
300.072293011
300.078656755
300.085387564
300.092491557
300.099974002
300.107839279
300.116090841
300.124731173
300.133761766
300.143183074
300.152994491
300.163194317
300.173779732
300.184746768
300.19609029
300.20780397
300.219880277
300.232310457
300.245084529
300.258191282
300.27161828
300.285351874
300.299377224
300.313678335
300.328238096
300.343038347
300.358059943
300.373282853
300.388686254
300.404248663
300.419948066
300.435762072
300.451668083
300.467643466
300.483665738
300.499712756
300.515762905
300.531795284
300.547789877
300.563727714
300.579591017
300.595363311
300.611029523
300.626576046
300.641990772
300.657263104
300.672383932
300.687345591
300.000114029
300.00035035
300.000606584
300.000889997
300.001208067
300.001568548
300.001979515
300.002449402
300.002987025
300.003601598
300.004302735
300.005100449
300.006005137
300.007027561
300.00817882
300.009470314
300.010913707
300.01252088
300.014303882
300.016274877
300.018446087
300.020829733
300.023437976
300.026282854
300.029376222
300.032729687
300.036354547
300.040261733
300.044461746
300.048964601
300.05377977
300.058916128
300.0643819
300.070184612
300.076331044
300.082827183
300.089678184
300.096888325
300.104460973
300.112398549
300.120702491
300.129373232
300.138410165
300.147811623
300.157574856
300.167696014
300.178170133
300.188991125
300.20015177
300.211643718
300.223457495
300.235582509
300.248007077
300.260718448
300.273702836
300.286945472
300.300430655
300.314141821
300.328061619
300.342172005
300.356454338
300.370889496
300.385457995
300.40014012
300.414916066
300.429766075
300.444670586
300.459610375
300.474566698
300.489521428
300.504457175
300.519357401
300.53420652
300.548989978
300.563694314
300.578307206
300.592817496
300.607215198
300.621491479
300.635638639
300.649650064
300.000111015
300.000341085
300.000590527
300.000866403
300.001175977
300.001526778
300.001926643
300.002383749
300.002906639
300.003504231
300.004185826
300.004961098
300.005840082
300.006833155
300.007951005
300.009204596
300.010605129
300.012163996
300.01389273
300.015802951
300.017906312
300.020214433
300.022738851
300.02549095
300.028481903
300.031722608
300.035223629
300.038995133
300.043046832
300.047387926
300.052027047
300.056972205
300.062230737
300.06780926
300.073713625
300.079948874
300.086519197
300.093427904
300.10067738
300.108269065
300.11620342
300.124479908
300.133096971
300.142052019
300.151341414
300.160960467
300.170903433
300.181163515
300.191732876
300.20260265
300.213762965
300.225202972
300.236910884
300.248874012
300.261078828
300.273511017
300.28615555
300.298996762
300.312018435
300.325203896
300.338536114
300.351997806
300.365571552
300.379239905
300.39298551
300.406791218
300.4206402
300.434516056
300.448402915
300.462285533
300.476149373
300.489980677
300.50376653
300.517494896
300.531154658
300.544735628
300.558228556
300.571625113
300.584917875
300.598100289
300.611166633
300.000107585
300.000330542
300.000572257
300.00083956
300.001139476
300.00147928
300.001866538
300.00230914
300.002815319
300.003393665
300.004053121
300.004802985
300.005652888
300.006612775
300.007692875
300.008903668
300.010255841
300.011760245
300.013427841
300.015269652
300.017296703
300.019519961
300.021950279
300.024598333
300.02747456
300.030589097
300.033951721
300.037571791
300.041458185
300.045619252
300.05006275
300.0547958
300.059824835
300.065155556
300.070792888
300.076740943
300.083002981
300.089581382
300.096477616
300.103692219
300.111224775
300.119073897
300.12723722
300.135711395
300.144492083
300.153573966
300.162950753
300.172615198
300.182559119
300.19277343
300.203248172
300.21397256
300.224935024
300.236123271
300.247524342
300.259124686
300.270910227
300.282866452
300.294978492
300.30723121
300.319609299
300.332097368
300.344680045
300.357342065
300.370068364
300.382844169
300.395655077
300.408487135
300.421326908
300.434161539
300.446978803
300.459767149
300.472515728
300.48521442
300.497853846
300.510425368
300.522921086
300.535333825
300.547657114
300.55988516
300.572012819
300.000103708
300.000318624
300.000551607
300.000809227
300.001098239
300.001425633
300.001798675
300.002224931
300.002712291
300.003268974
300.003903533
300.004624842
300.005442084
300.006364727
300.007402496
300.008565335
300.009863366
300.011306845
300.012906113
300.01467154
300.01661347
300.018742164
300.021067741
300.023600118
300.026348948
300.029323562
300.032532912
300.035985508
300.03968937
300.043651966
300.047880168
300.0523802
300.057157594
300.062217148
300.067562889
300.073198039
300.079124982
300.085345241
300.091859457
300.098667372
300.105767812
300.113158691
300.120836996
300.128798802
300.137039273
300.145552683
300.15433243
300.163371068
300.172660333
300.182191189
300.191953863
300.201937901
300.21213222
300.222525167
300.233104589
300.243857897
300.25477214
300.265834084
300.277030287
300.288347179
300.299771145
300.311288598
300.322886065
300.334550252
300.346268124
300.358026968
300.369814451
300.381618679
300.393428243
300.405232258
300.417020397
300.428782913
300.440510658
300.452195093
300.463828284
300.475402905
300.486912222
300.498350075
300.509710866
300.520989524
300.532181486
300.000099356
300.000305248
300.000528434
300.000775195
300.001051986
300.001365482
300.001722611
300.002130584
300.00259691
300.003129401
300.003736175
300.004425643
300.005206497
300.006087682
300.007078369
300.008187919
300.009425841
300.010801749
300.012325309
300.014006191
300.015854011
300.017878277
300.020088328
300.022493279
300.025101964
300.027922873
300.030964102
300.034233294
300.037737591
300.041483577
300.045477237
300.049723912
300.054228256
300.058994201
300.064024924
300.069322819
300.074889473
300.080725649
300.086831267
300.093205398
300.099846262
300.106751225
300.113916806
300.121338695
300.129011762
300.136930085
300.145086979
300.153475026
300.162086118
300.170911498
300.179941811
300.189167154
300.198577137
300.208160939
300.217907376
300.227804964
300.237841987
300.248006563
300.258286717
300.268670444
300.279145777
300.289700849
300.300323955
300.311003607
300.321728587
300.332487992
300.343271281
300.354068304
300.364869339
300.375665112
300.386446818
300.397206134
300.407935227
300.418626754
300.429273864
300.439870193
300.450409848
300.460887401
300.471297869
300.4816367
300.491899749
300.000094509
300.000290352
300.000502632
300.000737312
300.001000516
300.001298568
300.001638031
300.002025723
300.002468734
300.002974434
300.003550465
300.004204735
300.004945399
300.005780837
300.006719623
300.00777049
300.008942287
300.010243941
300.0116844
300.01327259
300.015017359
300.016927421
300.019011302
300.021277286
300.023733356
300.026387144
300.029245876
300.03231632
300.03560474
300.039116849
300.042857768
300.046831984
300.051043317
300.05549489
300.060189099
300.065127597
300.07031127
300.075740228
300.081413801
300.08733053
300.093488176
300.099883728
300.106513412
300.113372715
300.120456408
300.127758572
300.135272634
300.142991406
300.150907125
300.159011498
300.167295757
300.175750706
300.184366778
300.193134092
300.20204251
300.211081699
300.220241186
300.229510419
300.238878824
300.24833586
300.257871071
300.26747414
300.277134931
300.286843536
300.29659031
300.306365908
300.316161314
300.325967867
300.335777276
300.345581642
300.355373464
300.365145647
300.374891505
300.384604758
300.394279527
300.403910329
300.413492065
300.423020007
300.432489786
300.441897373
300.45123907
300.000089157
300.000273907
300.000474151
300.000695506
300.000943733
300.001224779
300.001544803
300.001910199
300.002327604
300.002803907
300.003346237
300.003961961
300.004658659
300.005444106
300.006326236
300.007313115
300.008412895
300.009633773
300.010983947
300.012471563
300.014104668
300.015891156
300.017838716
300.019954781
300.022246474
300.02472056
300.027383398
300.030240892
300.033298448
300.036560936
300.040032651
300.043717278
300.047617868
300.051736806
300.056075797
300.060635849
300.065417258
300.070419609
300.07564177
300.081081899
300.086737454
300.092605204
300.09868125
300.104961051
300.111439446
300.118110694
300.124968504
300.132006077
300.139216149
300.146591035
300.154122679
300.161802701
300.16962245
300.177573051
300.18564546
300.193830516
300.202118984
300.210501613
300.218969172
300.227512502
300.236122555
300.24479043
300.253507407
300.262264984
300.271054898
300.279869152
300.288700034
300.297540133
300.306382353
300.315219922