/*--------------------------------*- C++ -*----------------------------------*\
| =========                 |                                                 |
| \\      /  F ield         | OpenFOAM: The Open Source CFD Toolbox           |
|  \\    /   O peration     | Version:  2112                                  |
|   \\  /    A nd           | Website:  www.openfoam.com                      |
|    \\/     M anipulation  |                                                 |
\*---------------------------------------------------------------------------*/
FoamFile
{
    version     2.0;
    format      ascii;
    arch        "LSB;label=32;scalar=64";
    class       volVectorField;
    location    "1";
    object      U;
}
// * * * * * * * * * * * * * * * * * * * * * * * * * * * * * * * * * * * * * //

dimensions      [0 1 -1 0 0 0 0];

internalField   nonuniform List<vector> 
12013
(
(0.100004696396 -1.20931183931e-06 0)
(0.100021725265 -1.95695007708e-06 0)
(0.100044969128 -2.09678408168e-06 0)
(0.100065354399 -1.4857262146e-06 0)
(0.100075465693 -1.37667601772e-07 0)
(0.10006897951 1.78672097892e-06 0)
(0.100042190228 3.99799797874e-06 0)
(0.0999948237642 6.15640181684e-06 0)
(0.0999297389358 7.97177822049e-06 0)
(0.0998518313414 9.2699908501e-06 0)
(0.0997666484195 1.00113912163e-05 0)
(0.0996792099164 1.02639141088e-05 0)
(0.0995933121913 1.01553172265e-05 0)
(0.0995113403137 9.82396595109e-06 0)
(0.0994344470003 9.38820802683e-06 0)
(0.0993629067083 8.92973639745e-06 0)
(0.0992964869563 8.49415714921e-06 0)
(0.099234745498 8.09770692227e-06 0)
(0.0991772234165 7.73942268337e-06 0)
(0.099123543528 7.40812430673e-06 0)
(0.0990734408857 7.09142159728e-06 0)
(0.0990267540374 6.77685407584e-06 0)
(0.0989834001386 6.45605793384e-06 0)
(0.0989433469247 6.12292675406e-06 0)
(0.098906588467 5.77513786162e-06 0)
(0.0988731274608 5.41128242057e-06 0)
(0.0988429630424 5.03190040356e-06 0)
(0.0988160842205 4.63853094704e-06 0)
(0.0987924656419 4.23362005395e-06 0)
(0.098772066017 3.81910201938e-06 0)
(0.0987548282273 3.39813204142e-06 0)
(0.0987406782683 2.97340720548e-06 0)
(0.0987295246793 2.5486326572e-06 0)
(0.0987212579058 2.12813441446e-06 0)
(0.0987157482427 1.71566839344e-06 0)
(0.0987128449343 1.31652642169e-06 0)
(0.0987123751957 9.37110971469e-07 0)
(0.0987141414186 5.84248553017e-07 0)
(0.098717917187 2.65280057377e-07 0)
(0.0987234452665 -1.00430591789e-08 0)
(0.0987304346559 -2.31519375491e-07 0)
(0.0987385573169 -3.86757935046e-07 0)
(0.0987474439554 -4.62359428557e-07 0)
(0.0987566789747 -4.42555305455e-07 0)
(0.0987657968761 -3.09150662517e-07 0)
(0.0987742766465 -4.14811927565e-08 0)
(0.0987815360371 3.83283188569e-07 0)
(0.0987869246111 9.91834702384e-07 0)
(0.0987897164346 1.81479889574e-06 0)
(0.0987891025546 2.88716205246e-06 0)
(0.0987841790326 4.24819964293e-06 0)
(0.09877393507 5.94539302923e-06 0)
(0.0987572388738 8.03138665862e-06 0)
(0.098732820199 1.05695610974e-05 0)
(0.0986992505397 1.36329068522e-05 0)
(0.098654915751 1.73075053557e-05 0)
(0.09859798541 2.16961599393e-05 0)
(0.0985263740418 2.6921089572e-05 0)
(0.0984376922863 3.31304151298e-05 0)
(0.0983291862604 4.05033192825e-05 0)
(0.0981976588825 4.92593947446e-05 0)
(0.0980393718191 5.96716294561e-05 0)
(0.0978499170973 7.20805390216e-05 0)
(0.0976240483212 8.69174289672e-05 0)
(0.0973554589494 0.000104734729829 0)
(0.0970364838455 0.000126250229615 0)
(0.0966576933317 0.000152410133928 0)
(0.0962073331535 0.000184481994298 0)
(0.0956705361336 0.000224193074538 0)
(0.09502819549 0.000273944232576 0)
(0.0942553244783 0.000337141511622 0)
(0.0933186205232 0.000418724290945 0)
(0.0921727747716 0.00052602366183 0)
(0.0907547647596 0.000670187052521 0)
(0.088974993994 0.000868588289792 0)
(0.0867036949942 0.00114896660255 0)
(0.0837478615811 0.00155671463312 0)
(0.0798010696096 0.00217000282432 0)
(0.0743835222354 0.00314713388103 0)
(0.0669226561527 0.00493136223171 0)
(0.05852745195 0.00952041187722 0)
(0.10000450903 -3.70964188155e-06 0)
(0.100021628015 -6.01896491174e-06 0)
(0.100045006125 -6.4576584284e-06 0)
(0.100065628712 -4.59050411446e-06 0)
(0.100076071834 -4.5960607016e-07 0)
(0.100069996687 5.44298955297e-06 0)
(0.100043663404 1.22288092709e-05 0)
(0.09999675491 1.88563982188e-05 0)
(0.0999320896177 2.44336467929e-05 0)
(0.0998545332579 2.84254972004e-05 0)
(0.0997696178149 3.07092147777e-05 0)
(0.0996823612653 3.14921502111e-05 0)
(0.0995965680585 3.11646657937e-05 0)
(0.0995146372049 3.0152926948e-05 0)
(0.0994377371685 2.88189778157e-05 0)
(0.0993661566252 2.74146285485e-05 0)
(0.099299674232 2.60788914704e-05 0)
(0.0992378555515 2.48636391355e-05 0)
(0.0991802460089 2.37644412775e-05 0)
(0.0991264700389 2.27490164819e-05 0)
(0.0990762622513 2.17776083433e-05 0)
(0.0990294593309 2.08140072107e-05 0)
(0.0989859758947 1.98311554975e-05 0)
(0.0989457768356 1.88112462027e-05 0)
(0.0989088532715 1.77460034589e-05 0)
(0.0988752048683 1.66321597117e-05 0)
(0.0988448283591 1.54714110744e-05 0)
(0.0988177105398 1.42688133713e-05 0)
(0.0987938237011 1.30301255159e-05 0)
(0.0987731245926 1.17633024968e-05 0)
(0.0987555543992 1.04764529098e-05 0)
(0.0987410376479 9.17894052733e-06 0)
(0.0987294817529 7.88197481993e-06 0)
(0.0987207754965 6.59786089819e-06 0)
(0.0987147878762 5.33955682391e-06 0)
(0.0987113674951 4.12288574605e-06 0)
(0.0987103408008 2.96682239264e-06 0)
(0.0987115091022 1.8920641667e-06 0)
(0.0987146456628 9.22982753243e-07 0)
(0.0987194931311 8.78538552826e-08 0)
(0.0987257604905 -5.81528528706e-07 0)
(0.0987331200997 -1.04780381057e-06 0)
(0.0987412033421 -1.26884621393e-06 0)
(0.0987495962401 -1.19658868121e-06 0)
(0.0987578352535 -7.75852627853e-07 0)
(0.0987654016798 5.62223220131e-08 0)
(0.0987717166497 1.37081045465e-06 0)
(0.0987761344316 3.24918113235e-06 0)
(0.0987779349577 5.78421444263e-06 0)
(0.0987763160528 9.08294471691e-06 0)
(0.0987703834977 1.32673795366e-05 0)
(0.0987591378208 1.84796148393e-05 0)
(0.0987414613268 2.48830073027e-05 0)
(0.0987161021235 3.26681127494e-05 0)
(0.0986816534869 4.20589038437e-05 0)
(0.0986365298419 5.33175361349e-05 0)
(0.0985789365512 6.67559630375e-05 0)
(0.0985068338909 8.27464856955e-05 0)
(0.0984178910044 0.000101737260642 0)
(0.0983094290781 0.000124271732203 0)
(0.0981783504985 0.000151014477816 0)
(0.0980210475247 0.000182788167311 0)
(0.0978332861233 0.000220618346626 0)
(0.0976100557601 0.000265799968049 0)
(0.0973453735163 0.000319987227008 0)
(0.0970320254372 0.000385319335417 0)
(0.0966612213095 0.000464603465447 0)
(0.0962221300916 0.00056157849314 0)
(0.0957012466385 0.000681305099999 0)
(0.0950815192298 0.000830756793489 0)
(0.0943411365355 0.00101971958001 0)
(0.0934518341333 0.00126219313632 0)
(0.0923765273128 0.00157859565204 0)
(0.0910660329409 0.00199926388004 0)
(0.0894547704283 0.00257002689214 0)
(0.0874558910578 0.00336087667233 0)
(0.0849560463156 0.00447862731145 0)
(0.0818060864481 0.00608429782317 0)
(0.0778393508368 0.00841603469105 0)
(0.0731092577232 0.0117544302223 0)
(0.0689720105341 0.015970419885 0)
(0.100004380115 -6.36404698455e-06 0)
(0.100021533135 -1.03896907451e-05 0)
(0.100045055154 -1.11759777515e-05 0)
(0.100066028202 -7.99909101766e-06 0)
(0.100077044461 -9.26125676071e-07 0)
(0.10007176799 9.20276548286e-06 0)
(0.100046409197 2.08645861313e-05 0)
(0.10000056034 3.22709713283e-05 0)
(0.0999369333345 4.18859578148e-05 0)
(0.0998602987484 4.87851537996e-05 0)
(0.0997761241678 5.27514074244e-05 0)
(0.0996894014082 5.41353417381e-05 0)
(0.0996039429943 5.36042218017e-05 0)
(0.0995221787971 5.18900526275e-05 0)
(0.0994453183949 4.96142950804e-05 0)
(0.0993736908169 4.72105697318e-05 0)
(0.0993071083243 4.49205426479e-05 0)
(0.0992451601455 4.28348304659e-05 0)
(0.0991874053976 4.09469414102e-05 0)
(0.0991334741208 3.92033914357e-05 0)
(0.0990831005628 3.75359521879e-05 0)
(0.0990361173169 3.58835543569e-05 0)
(0.0989924327844 3.41995160687e-05 0)
(0.0989520052029 3.24547057878e-05 0)
(0.0989148188206 3.06331397277e-05 0)
(0.0988808668558 2.87299413537e-05 0)
(0.0988501403832 2.67484517673e-05 0)
(0.0988226207728 2.46968690003e-05 0)
(0.0987982760788 2.25850954636e-05 0)
(0.0987770592166 2.04264959518e-05 0)
(0.0987589075224 1.82356503013e-05 0)
(0.0987437425728 1.60287909803e-05 0)
(0.0987314686125 1.3824605747e-05 0)
(0.0987219716695 1.16436969904e-05 0)
(0.0987151184666 9.50964075193e-06 0)
(0.0987107554823 7.44961974959e-06 0)
(0.0987087068631 5.49534499081e-06 0)
(0.0987087722715 3.68289026652e-06 0)
(0.0987107236931 2.05446103802e-06 0)
(0.0987143026418 6.57883588332e-07 0)
(0.0987192178034 -4.51563294516e-07 0)
(0.0987251417837 -1.21004755184e-06 0)
(0.0987317068144 -1.54574575269e-06 0)
(0.0987385007235 -1.37553538457e-06 0)
(0.0987450630683 -6.05798448219e-07 0)
(0.0987508795949 8.70850253791e-07 0)
(0.0987553773251 3.17685836658e-06 0)
(0.0987579181988 6.4506468956e-06 0)
(0.0987577925291 1.08507067516e-05 0)
(0.0987542110851 1.6559440552e-05 0)
(0.0987462955513 2.3785817272e-05 0)
(0.0987330672653 3.27695618109e-05 0)
(0.0987134339709 4.37895634219e-05 0)
(0.0986861761317 5.71688908791e-05 0)
(0.0986499275909 7.32861420205e-05 0)
(0.0986031532187 9.25854254666e-05 0)
(0.0985441232458 0.000115592956913 0)
(0.0984708795315 0.000142935264768 0)
(0.0983811959848 0.000175364299778 0)
(0.0982725292032 0.000213789472131 0)
(0.0981419576129 0.000259320069411 0)
(0.0979861048098 0.000313320790132 0)
(0.0978010442159 0.000377487577475 0)
(0.097582179539 0.000453948453315 0)
(0.0973240908915 0.000545403322171 0)
(0.0970203426693 0.000655317307917 0)
(0.0966632378909 0.000788192574812 0)
(0.0962435041507 0.000949955920577 0)
(0.0957499006799 0.00114851860997 0)
(0.0951687266614 0.00139459071443 0)
(0.0944832285866 0.00170287876196 0)
(0.0936729353742 0.00209385408163 0)
(0.0927130144423 0.0025963506308 0)
(0.0915739284005 0.00325132010983 0)
(0.0902220961007 0.00411703150569 0)
(0.0886232062014 0.00527547449859 0)
(0.0867508828286 0.00683780406584 0)
(0.0846037682428 0.00894245991625 0)
(0.0822499112558 0.01173059978 0)
(0.0799621984018 0.0152214044374 0)
(0.0784742500495 0.0188030453242 0)
(0.100004283956 -9.17331862204e-06 0)
(0.100021450323 -1.50893035178e-05 0)
(0.100045139049 -1.62881699044e-05 0)
(0.100066593944 -1.17759176353e-05 0)
(0.100078460278 -1.63005294043e-06 0)
(0.100074427893 1.29499705273e-05 0)
(0.100050641032 2.97772728903e-05 0)
(0.100006547948 4.62765508547e-05 0)
(0.0999446797683 6.02258652738e-05 0)
(0.0998696374428 7.02795978057e-05 0)
(0.0997867681639 7.61083875477e-05 0)
(0.0997010095171 7.82048948311e-05 0)
(0.099616181065 7.75217915417e-05 0)
(0.0995347619109 7.51103046433e-05 0)
(0.0994580310338 7.18677687585e-05 0)
(0.0993863882773 6.84222240452e-05 0)
(0.0993197046938 6.51280899885e-05 0)
(0.0992576113419 6.21201586293e-05 0)
(0.0991996925828 5.93943170719e-05 0)
(0.0991455889712 5.6876086024e-05 0)
(0.0990950348742 5.44700300718e-05 0)
(0.099047856719 5.20886391356e-05 0)
(0.0990039535203 4.9666364242e-05 0)
(0.0989632723706 4.71603270872e-05 0)
(0.0989257864029 4.45482216036e-05 0)
(0.0988914791158 4.18230442778e-05 0)
(0.0988603325864 3.89890661494e-05 0)
(0.0988323201456 3.60573816319e-05 0)
(0.0988074029027 3.3043764906e-05 0)
(0.0987855280514 2.99662057538e-05 0)
(0.0987666276282 2.68463109734e-05 0)
(0.098750618126 2.37076304656e-05 0)
(0.0987373994774 2.05768412971e-05 0)
(0.0987268536657 1.74838800873e-05 0)
(0.0987188439007 1.44630428226e-05 0)
(0.0987132134151 1.15536612925e-05 0)
(0.0987097834398 8.80158356757e-06 0)
(0.0987083509306 6.2591546768e-06 0)
(0.0987086857785 3.98702762451e-06 0)
(0.0987105283721 2.05441947982e-06 0)
(0.0987135871718 5.41133402222e-07 0)
(0.0987175348254 -4.61328018657e-07 0)
(0.0987220053392 -8.49299331895e-07 0)
(0.0987265898389 -5.03563790441e-07 0)
(0.0987308325348 7.10632629036e-07 0)
(0.0987342265316 2.9471968001e-06 0)
(0.0987362079697 6.38073341047e-06 0)
(0.0987361511707 1.12100646695e-05 0)
(0.0987333628746 1.76620570746e-05 0)
(0.0987270741246 2.59962488796e-05 0)
(0.0987164317286 3.65104331687e-05 0)
(0.0987004890279 4.95459629359e-05 0)
(0.098678194378 6.54980096977e-05 0)
(0.0986483779417 8.48251170533e-05 0)
(0.0986097357821 0.000108061132867 0)
(0.0985608115466 0.000135832762118 0)
(0.098499973655 0.000168878531322 0)
(0.0984253886987 0.000208075360552 0)
(0.098334989466 0.000254471759505 0)
(0.0982264360898 0.000309329382976 0)
(0.0980970699032 0.000374179164479 0)
(0.0979438576247 0.000450893353735 0)
(0.0977633243765 0.000541781696586 0)
(0.0975514735162 0.000649718320327 0)
(0.0973036933109 0.000778313214463 0)
(0.0970146473765 0.000932146630715 0)
(0.0966781519353 0.00111708577827 0)
(0.0962870481725 0.00134072561462 0)
(0.0958330829029 0.00161299894518 0)
(0.0953068329479 0.00194702072941 0)
(0.0946977457389 0.00236025806182 0)
(0.0939944296906 0.00287611937902 0)
(0.0931854470222 0.00352604418993 0)
(0.0922610659155 0.00435205813184 0)
(0.0912167764267 0.00540938118588 0)
(0.090059909281 0.0067676682226 0)
(0.0888210814224 0.00850700147639 0)
(0.08757159941 0.0107001109703 0)
(0.086448258664 0.013364450096 0)
(0.0856810063431 0.016343504808 0)
(0.0855582636176 0.0190423219074 0)
(0.100004203374 -1.21574219737e-05 0)
(0.100021380203 -2.0146311666e-05 0)
(0.100045268804 -2.18486944336e-05 0)
(0.100067348434 -1.60120030026e-05 0)
(0.10008036555 -2.70264807724e-06 0)
(0.100078062242 1.65164761713e-05 0)
(0.100056502062 3.87758559949e-05 0)
(0.100014933284 6.06789854275e-05 0)
(0.0999556259954 7.92791618239e-05 0)
(0.0998829308023 9.27729381582e-05 0)
(0.0998020128201 0.00010069406978 0)
(0.0997177229933 0.000103666223946 0)
(0.0996338845957 0.000102928145134 0)
(0.0995530448801 9.98602200041e-05 0)
(0.0994765824316 9.56501536507e-05 0)
(0.0994049996983 9.11346715928e-05 0)
(0.0993382544539 8.67909669634e-05 0)
(0.0992760403262 8.28090147199e-05 0)
(0.0992179794829 7.91922683147e-05 0)
(0.0991637292098 7.58485927367e-05 0)
(0.0991130253644 7.26565613716e-05 0)
(0.0990656865776 6.95037543004e-05 0)
(0.0990215986046 6.63047187311e-05 0)
(0.0989806937063 6.3002641325e-05 0)
(0.0989429305001 5.95684538063e-05 0)
(0.0989082784327 5.59931069334e-05 0)
(0.0988767073948 5.22812076373e-05 0)
(0.0988481802465 4.84473488707e-05 0)
(0.0988226489976 4.45122925508e-05 0)
(0.0988000528398 4.05004149923e-05 0)
(0.0987803169096 3.64391821034e-05 0)
(0.0987633514832 3.23606064679e-05 0)
(0.0987490507114 2.82997935571e-05 0)
(0.0987372916079 2.42967896614e-05 0)
(0.0987279328351 2.03971121829e-05 0)
(0.0987208136203 1.66537000769e-05 0)
(0.0987157513541 1.31267223639e-05 0)
(0.098712540052 9.88602251628e-06 0)
(0.0987109475967 7.01190219063e-06 0)
(0.0987107130221 4.59618387823e-06 0)
(0.0987115446437 2.74432875616e-06 0)
(0.0987131165476 1.57679216407e-06 0)
(0.0987150658623 1.23075046332e-06 0)
(0.0987169887303 1.86276098429e-06 0)
(0.09871843711 3.64998118752e-06 0)
(0.0987189144283 6.79448730385e-06 0)
(0.0987178712614 1.15246893774e-05 0)
(0.0987147004994 1.81012002052e-05 0)
(0.0987087318951 2.68200580617e-05 0)
(0.098699226081 3.80194069533e-05 0)
(0.0986853667579 5.20859884959e-05 0)
(0.0986662531607 6.94633424257e-05 0)
(0.0986408905895 9.06623818628e-05 0)
(0.0986081799556 0.000116273992886 0)
(0.0985669054599 0.000146984558587 0)
(0.0985157197147 0.000183596090344 0)
(0.0984531280063 0.000227050057139 0)
(0.0983774689992 0.000278458792006 0)
(0.0982868921308 0.000339144259436 0)
(0.0981793328154 0.000410687746504 0)
(0.0980524849301 0.000494993383819 0)
(0.0979037691397 0.000594370596043 0)
(0.0977302999252 0.000711639436447 0)
(0.097528852859 0.000850270288925 0)
(0.097295835395 0.00101456393829 0)
(0.0970272681425 0.00120988972972 0)
(0.0967187897379 0.00144299933272 0)
(0.0963657070418 0.00172243992164 0)
(0.0959631249544 0.0020590937175 0)
(0.0955062169565 0.00246687594304 0)
(0.0949907336249 0.00296361258149 0)
(0.0944139048978 0.0035720853854 0)
(0.0937759733138 0.00432114972177 0)
(0.0930827035845 0.00524661473825 0)
(0.0923493200478 0.00639113674703 0)
(0.0916063290427 0.00780145304097 0)
(0.0909072497319 0.00951958024581 0)
(0.0903367126618 0.0115620517043 0)
(0.090013987917 0.0138787786532 0)
(0.0900776194658 0.01628236159 0)
(0.0906111977566 0.0183570514457 0)
(0.100004128243 -1.53331266349e-05 0)
(0.100021319025 -2.55917486167e-05 0)
(0.100045444714 -2.7921810256e-05 0)
(0.100068292849 -2.08150976263e-05 0)
(0.10008276604 -4.30520779544e-06 0)
(0.100082689263 1.96912942273e-05 0)
(0.100064034099 4.76149481796e-05 0)
(0.100025794457 7.52240151833e-05 0)
(0.0999698989015 9.88102089365e-05 0)
(0.0999003637271 0.000116072829079 0)
(0.0998221064659 0.000126374286986 0)
(0.0997398549917 0.000130446219636 0)
(0.0996574300122 0.000129806461796 0)
(0.099577463799 0.000126168535033 0)
(0.0995014635164 0.000121020652894 0)
(0.0994300662146 0.00011542394576 0)
(0.099363345478 0.000109993633487 0)
(0.0993010791989 0.000104985950248 0)
(0.0992429411075 0.000100421024846 0)
(0.0991886125114 9.6195347079e-05 0)
(0.0991378332477 9.21650602803e-05 0)
(0.0990904130306 8.81937687595e-05 0)
(0.0990462216719 8.41763827894e-05 0)
(0.0990051729178 8.00438508182e-05 0)
(0.0989672069604 7.57587808745e-05 0)
(0.0989322761371 7.13090361991e-05 0)
(0.0989003351577 6.67005468954e-05 0)
(0.0988713339765 6.19507484965e-05 0)
(0.098845213364 5.70852048383e-05 0)
(0.0988219026835 5.21341522668e-05 0)
(0.0988013188906 4.71331071127e-05 0)
(0.0987833648177 4.21211922149e-05 0)
(0.0987679279187 3.71435050557e-05 0)
(0.0987548793535 3.2250498475e-05 0)
(0.0987440727988 2.75000709216e-05 0)
(0.0987353426533 2.29587614277e-05 0)
(0.0987285024319 1.87027769811e-05 0)
(0.0987233433078 1.48205534653e-05 0)
(0.0987196309804 1.14122046941e-05 0)
(0.0987171040137 8.59381140432e-06 0)
(0.0987154718049 6.4974659867e-06 0)
(0.0987144110429 5.27369902128e-06 0)
(0.098713564147 5.0940845414e-06 0)
(0.0987125351642 6.15331577426e-06 0)
(0.0987108872951 8.6722990299e-06 0)
(0.0987081395423 1.29012522757e-05 0)
(0.0987037622583 1.91236213242e-05 0)
(0.0986971738995 2.76612516135e-05 0)
(0.098687736634 3.88792645862e-05 0)
(0.0986747513102 5.31935774491e-05 0)
(0.0986574514408 7.10780088618e-05 0)
(0.0986349979805 9.30746139239e-05 0)
(0.0986064722465 0.000119805425848 0)
(0.0985708685859 0.000151986951395 0)
(0.0985270864006 0.000190447475792 0)
(0.0984739211621 0.000236149806389 0)
(0.0984100544405 0.000290218157489 0)
(0.0983340441451 0.000353971646578 0)
(0.0982443139605 0.000428965687956 0)
(0.0981391433654 0.00051704617589 0)
(0.0980166600882 0.000620413913261 0)
(0.0978748351528 0.000741708328078 0)
(0.0977114856918 0.000884112057502 0)
(0.0975242879297 0.00105148265645 0)
(0.0973108096839 0.00124851956097 0)
(0.0970685736605 0.00148097205632 0)
(0.0967951686123 0.00175590094776 0)
(0.0964884359759 0.00208199776286 0)
(0.0961467702834 0.0024699700078 0)
(0.0957695931743 0.0029329814596 0)
(0.0953580797517 0.0034871190088 0)
(0.0949162494743 0.0041518007653 0)
(0.0944525518062 0.00494994075636 0)
(0.0939820828007 0.00590749824579 0)
(0.0935294966738 0.00705171487105 0)
(0.0931324212944 0.0084068030274 0)
(0.0928445535284 0.00998511810861 0)
(0.0927362401673 0.0117712174728 0)
(0.0928879990033 0.0136968506119 0)
(0.0933682977234 0.0156094098584 0)
(0.0941817460263 0.0172517834067 0)
(0.100004052235 -1.8715245511e-05 0)
(0.100021259671 -3.14589942229e-05 0)
(0.100045655178 -3.45781380673e-05 0)
(0.10006940094 -2.63086155001e-05 0)
(0.100085613952 -6.62491528699e-06 0)
(0.100088235445 2.2224810542e-05 0)
(0.100073140136 5.59980828082e-05 0)
(0.100039020146 8.95974482733e-05 0)
(0.0999873873054 0.000118520867506 0)
(0.0999218429956 0.000139925778475 0)
(0.0998469904882 0.000152959025111 0)
(0.0997673951524 0.000158425827032 0)
(0.0996868640853 0.000158103482712 0)
(0.0996081257056 0.0001540352871 0)
(0.0995328411883 0.000148017348784 0)
(0.0994618121366 0.000141351192046 0)
(0.0993952547217 0.000134807220194 0)
(0.0993330526929 0.000128723357982 0)
(0.0992749461894 0.000123149174501 0)
(0.099220648962 0.000117978672334 0)
(0.0991699079223 0.000113050970641 0)
(0.0991225238278 0.000108209102966 0)
(0.0990783492038 0.000103329737056 0)
(0.0990372764118 9.83308249122e-05 0)
(0.0989992239635 9.31670221136e-05 0)
(0.0989641244994 8.78230227194e-05 0)
(0.0989319150293 8.23050487299e-05 0)
(0.0989025302341 7.66331306414e-05 0)
(0.0988758980003 7.08376120901e-05 0)
(0.0988519369862 6.49548450246e-05 0)
(0.0988305543076 5.90278952065e-05 0)
(0.0988116445482 5.31044810718e-05 0)
(0.0987950882358 4.72394020936e-05 0)
(0.0987807500094 4.14944681766e-05 0)
(0.0987684779717 3.59407008909e-05 0)
(0.0987581019619 3.065896473e-05 0)
(0.0987494320301 2.57426798784e-05 0)
(0.0987422563276 2.12988003954e-05 0)
(0.0987363397105 1.74494426596e-05 0)
(0.0987314215791 1.43349525017e-05 0)
(0.0987272134113 1.21149845755e-05 0)
(0.0987233974318 1.09706065197e-05 0)
(0.0987196240529 1.11085748238e-05 0)
(0.0987155090426 1.2761701743e-05 0)
(0.0987106316297 1.6194773471e-05 0)
(0.098704531402 2.17059482975e-05 0)
(0.0986967061287 2.96325701141e-05 0)
(0.0986866082344 4.03559874269e-05 0)
(0.0986736420385 5.43086357407e-05 0)
(0.0986571606942 7.1979558473e-05 0)
(0.0986364619158 9.39253086312e-05 0)
(0.0986107853875 0.00012077914601 0)
(0.0985793084468 0.000153264688741 0)
(0.0985411425335 0.000192210315935 0)
(0.0984953301928 0.000238569107622 0)
(0.098440841695 0.000293440987019 0)
(0.0983765731623 0.000358100102416 0)
(0.0983013452944 0.000434029447512 0)
(0.0982139061526 0.000522961686085 0)
(0.0981129362794 0.000626929674095 0)
(0.0979970602123 0.000748328077012 0)
(0.0978648674768 0.000889988787699 0)
(0.0977149452451 0.00105527125698 0)
(0.097545932219 0.00124817290743 0)
(0.0973565989488 0.00147345991742 0)
(0.0971459693483 0.00173682027826 0)
(0.0969134991431 0.00204504089439 0)
(0.0966593359287 0.00240619774711 0)
(0.0963846893059 0.00282985250227 0)
(0.0960923491572 0.00332721797567 0)
(0.0957873986091 0.00391124102399 0)
(0.0954781627104 0.00459649730887 0)
(0.0951774174774 0.00539872011353 0)
(0.0949038356427 0.00633367410329 0)
(0.0946835125117 0.00741491949565 0)
(0.0945511639128 0.00864982077376 0)
(0.094550128273 0.0100330181022 0)
(0.094729564778 0.0115368009634 0)
(0.0951363102645 0.0130990437202 0)
(0.0957980513195 0.0146126185784 0)
(0.0966958125094 0.0159269246579 0)
(0.100003971054 -2.23181040731e-05 0)
(0.100021192551 -3.77830644906e-05 0)
(0.100045876159 -4.18923888779e-05 0)
(0.100070615799 -3.26249397163e-05 0)
(0.100088799064 -9.86678998607e-06 0)
(0.100094518485 2.38372492133e-05 0)
(0.100083556114 6.35882198669e-05 0)
(0.100054268372 0.000103434070576 0)
(0.100007688295 0.000138055149239 0)
(0.0999469307985 0.000164018773794 0)
(0.0998762225987 0.000180201531188 0)
(0.0997999243176 0.000187433986691 0)
(0.0997218119558 0.000187720991212 0)
(0.0996447136201 0.000183422162995 0)
(0.0995704617382 0.000176647808193 0)
(0.0995000458393 0.000168952439541 0)
(0.0994338481031 0.000161281509758 0)
(0.099371877863 0.000154074988466 0)
(0.0993139557996 0.000147427993497 0)
(0.0992598369718 0.000141244065326 0)
(0.0992092805221 0.000135353181129 0)
(0.0991620798662 0.000129582970054 0)
(0.0991180693215 0.000123794058757 0)
(0.0990771185299 0.000117891390524 0)
(0.0990391226905 0.000111822232148 0)
(0.099003992628 0.000105567480584 0)
(0.0989716457526 9.91323850826e-05 0)
(0.0989420002679 9.25398220967e-05 0)
(0.0989149699104 8.58240373304e-05 0)
(0.0988904611554 7.90282634629e-05 0)
(0.0988683713094 7.22022545199e-05 0)
(0.0988485860418 6.54035123398e-05 0)
(0.0988309782994 5.86963595041e-05 0)
(0.0988154066109 5.21549093041e-05 0)
(0.0988017137752 4.58637330091e-05 0)
(0.0987897252639 3.99191439074e-05 0)
(0.0987792481674 3.44318525836e-05 0)
(0.0987700693813 2.95287351266e-05 0)
(0.098761953941 2.53542436015e-05 0)
(0.0987546437445 2.20732897817e-05 0)
(0.0987478553948 1.98731506841e-05 0)
(0.0987412793474 1.89667189139e-05 0)
(0.0987345778185 1.95942676637e-05 0)
(0.0987273828753 2.2027250708e-05 0)
(0.0987192955266 2.65719507988e-05 0)
(0.0987098829908 3.35734593688e-05 0)
(0.0986986774723 4.34201148925e-05 0)
(0.0986851750854 5.6549573521e-05 0)
(0.0986688333438 7.3455453174e-05 0)
(0.0986490703439 9.46945819354e-05 0)
(0.0986252632901 0.000120896580813 0)
(0.0985967475063 0.000152774686191 0)
(0.0985628159121 0.000191138510118 0)
(0.0985227199175 0.000236908990009 0)
(0.0984756710895 0.000291137846473 0)
(0.0984208430236 0.000355028169193 0)
(0.0983573777879 0.000429961340754 0)
(0.0982843947171 0.000517527811876 0)
(0.0982010025379 0.000619564094054 0)
(0.0981063190906 0.00073819545933 0)
(0.0979995003754 0.00087588856245 0)
(0.0978797794645 0.00103550888567 0)
(0.0977465242986 0.00122039054094 0)
(0.0975993165743 0.00143441133953 0)
(0.0974380597184 0.00168207664267 0)
(0.097263129571 0.00196860454025 0)
(0.0970755732914 0.00230000747266 0)
(0.0968773772071 0.00268315653699 0)
(0.0966718146609 0.00312580296276 0)
(0.0964638891041 0.00363652789233 0)
(0.096260882836 0.00422455785197 0)
(0.0960730011668 0.00489936911615 0)
(0.0959140743202 0.0056699559377 0)
(0.0958022213924 0.00654360393328 0)
(0.0957602804037 0.00752395271568 0)
(0.0958156446595 0.00860813539381 0)
(0.0959989353397 0.00978285641557 0)
(0.0963406785377 0.0110196261201 0)
(0.0968649957588 0.012270181347 0)
(0.097579594454 0.0134646388166 0)
(0.0984631831977 0.0145169711371 0)
(0.100003881277 -2.61548392146e-05 0)
(0.100021105522 -4.45974164995e-05 0)
(0.100046072284 -4.99382149817e-05 0)
(0.100071849773 -3.98972477929e-05 0)
(0.100092146671 -1.42415699059e-05 0)
(0.100101242638 2.42370267978e-05 0)
(0.100094842072 7.00252691513e-05 0)
(0.10007095103 0.000116336921765 0)
(0.100030083181 0.000157014710292 0)
(0.0999748124196 0.000187989433121 0)
(0.0999089347855 0.000207801749663 0)
(0.0998365641526 0.000217246073673 0)
(0.0997614202089 0.000218509712651 0)
(0.0996864232905 0.000214246288637 0)
(0.0996135826101 0.000206878620576 0)
(0.0995440887744 0.000198228113889 0)
(0.0994785069544 0.000189436874566 0)
(0.099416987608 0.000181069598471 0)
(0.0993594445708 0.000173286525562 0)
(0.0993056837737 0.000166017190124 0)
(0.0992554825358 0.000159092755184 0)
(0.0992086301378 0.000152331535329 0)
(0.0991649441933 0.000145581848383 0)
(0.0991242721023 0.000138737197368 0)
(0.099086485241 0.000131737180339 0)
(0.0990514714679 0.000124557861073 0)
(0.0990191281746 0.000117203812542 0)
(0.0989893560698 0.000109699320704 0)
(0.0989620543653 0.000102082608615 0)
(0.0989371173397 9.44028082022e-05 0)
(0.0989144316704 8.67174277664e-05 0)
(0.0988938744244 7.90926761723e-05 0)
(0.098875311343 7.16041356746e-05 0)
(0.0988585952408 6.43380846577e-05 0)
(0.0988435640263 5.7392895214e-05 0)
(0.0988300400481 5.08811375706e-05 0)
(0.0988178291597 4.49315364064e-05 0)
(0.098806718158 3.9690916795e-05 0)
(0.09879647456 3.5326291455e-05 0)
(0.098786845504 3.20274867929e-05 0)
(0.0987775561553 3.00092125163e-05 0)
(0.0987683089237 2.95145371703e-05 0)
(0.0987587823352 3.08169916493e-05 0)
(0.0987486305429 3.42244422767e-05 0)
(0.0987374823754 4.00825516662e-05 0)
(0.0987249400229 4.87790875085e-05 0)
(0.0987105793733 6.0749051035e-05 0)
(0.0986939495361 7.64804490918e-05 0)
(0.0986745727776 9.65199371631e-05 0)
(0.0986519450093 0.000121482096205 0)
(0.0986255367703 0.000152056719839 0)
(0.0985947957311 0.000189020354732 0)
(0.0985591482989 0.000233247157637 0)
(0.0985180052384 0.000285725016366 0)
(0.0984707675176 0.000347569976498 0)
(0.0984168343741 0.000420046440931 0)
(0.0983556164923 0.000504589593884 0)
(0.0982865511396 0.000602830607443 0)
(0.0982091246742 0.000716624750113 0)
(0.0981229030497 0.000848085684608 0)
(0.0980275702247 0.000999620246528 0)
(0.097922981312 0.0011739670861 0)
(0.0978092308109 0.00137423747207 0)
(0.097686742042 0.00160395270382 0)
(0.0975563819808 0.00186707768645 0)
(0.0974196064595 0.00216804202394 0)
(0.0972786445646 0.00251173739607 0)
(0.0971367207178 0.0029034816175 0)
(0.0969983224358 0.00334892023637 0)
(0.096869506791 0.0038538467068 0)
(0.0967582324812 0.00442389523447 0)
(0.0966746875749 0.00506406293545 0)
(0.0966315563007 0.00577800141693 0)
(0.0966441284935 0.00656701852707 0)
(0.0967301043685 0.00742873762149 0)
(0.0969088785195 0.00835540705272 0)
(0.0972000257054 0.00933196081777 0)
(0.0976206869739 0.0103341527726 0)
(0.0981816340508 0.011327467004 0)
(0.0988821162927 0.0122680091026 0)
(0.0997046820197 0.0131069700453 0)
(0.100003780126 -3.0236497747e-05 0)
(0.100020984606 -5.19314765894e-05 0)
(0.100046198308 -5.87819778973e-05 0)
(0.10007298944 -4.82477605525e-05 0)
(0.100095427716 -1.99462963871e-05 0)
(0.100108013545 2.31446637939e-05 0)
(0.100106401981 7.49571492426e-05 0)
(0.10008825775 0.000127904275814 0)
(0.100053562573 0.00017498558444 0)
(0.100004319086 0.000211445393881 0)
(0.0999438521874 0.000235417947896 0)
(0.0998759890184 0.000247587880108 0)
(0.0998043605863 0.000250267123908 0)
(0.0997319585844 0.000246371564106 0)
(0.0996609599236 0.000238627304052 0)
(0.0995927569477 0.000229135281046 0)
(0.0995281043671 0.00021925630787 0)
(0.0994673031155 0.000209704315819 0)
(0.0994103705146 0.000200728357906 0)
(0.0993571721953 0.000192302739549 0)
(0.0993075106181 0.000184273117446 0)
(0.099261176617 0.000176456660353 0)
(0.0992179743767 0.000168693881732 0)
(0.0991777310242 0.000160869570707 0)
(0.0991402955074 0.000152914946461 0)
(0.0991055339198 0.000144801543089 0)
(0.0990733237326 0.000136532289877 0)
(0.0990435485238 0.000128132194881 0)
(0.0990160931287 0.000119643196248 0)
(0.0989908396902 0.000111119476682 0)
(0.09896766507 0.000102626028081 0)
(0.0989464382238 9.42383498945e-05 0)
(0.098927018468 8.60431637604e-05 0)
(0.0989092534641 7.81394208632e-05 0)
(0.0988929781474 7.06395320524e-05 0)
(0.0988780133974 6.36729544423e-05 0)
(0.0988641650993 5.73859683793e-05 0)
(0.0988512230243 5.19455808845e-05 0)
(0.0988389601462 4.75411375897e-05 0)
(0.0988271320528 4.43866135829e-05 0)
(0.0988154762117 4.27229976477e-05 0)
(0.0988037119716 4.282196956e-05 0)
(0.0987915399066 4.49880342687e-05 0)
(0.09877864195 4.95618419121e-05 0)
(0.098764681726 5.69244297059e-05 0)