/*--------------------------------*- C++ -*----------------------------------*\
| =========                 |                                                 |
| \\      /  F ield         | OpenFOAM: The Open Source CFD Toolbox           |
|  \\    /   O peration     | Version:  2112                                  |
|   \\  /    A nd           | Website:  www.openfoam.com                      |
|    \\/     M anipulation  |                                                 |
\*---------------------------------------------------------------------------*/
FoamFile
{
    version     2.0;
    format      ascii;
    arch        "LSB;label=32;scalar=64";
    class       volVectorField;
    location    "1";
    object      flux;
}
// * * * * * * * * * * * * * * * * * * * * * * * * * * * * * * * * * * * * * //

dimensions      [0 1 -1 1 0 0 0];

internalField   nonuniform List<vector> 
1681
(
(2622.59801043 -14.0737935372 0)
(0.0151219280231 -13.9677971168 0)
(0.0229313958377 -13.7709498935 0)
(0.0281022737187 -13.5086293639 0)
(0.0306574501195 -13.2083624242 0)
(0.0310196278019 -12.8950248057 0)
(0.0297971297329 -12.5876336964 0)
(0.0275779428021 -12.298862153 0)
(0.02483760018 -12.0359494019 0)
(0.0219189570446 -11.8020532674 0)
(0.0190466909418 -11.5975586674 0)
(0.0163541906377 -11.4211351828 0)
(0.0139104723586 -11.270505257 0)
(0.0117421475301 -11.1429624757 0)
(0.00984958000561 -11.0357002356 0)
(0.00821801864315 -10.9460070326 0)
(0.00682490861382 -10.8713727173 0)
(0.00564449916172 -10.8095377783 0)
(0.00465062505565 -10.7585076174 0)
(0.00381829459302 -10.7165463289 0)
(0.00312451878691 -10.6821593011 0)
(0.00254867080188 -10.6540704698 0)
(0.00207256368033 -10.6311977678 0)
(0.00168036639393 -10.6126288479 0)
(0.00135843361292 -10.5975982264 0)
(0.00109509561409 -10.5854664191 0)
(0.000880436173191 -10.5757012928 0)
(0.00070607456664 -10.5678616459 0)
(0.000564960432622 -10.5615829214 0)
(0.000451185869685 -10.5565648918 0)
(0.000359816988002 -10.5525611289 0)
(0.000286746773342 -10.5493700582 0)
(0.000228569847032 -10.5468273711 0)
(0.000182475299955 -10.5447995811 0)
(0.000146191377392 -10.543178587 0)
(0.000118137017675 -10.5418763697 0)
(9.72414883286e-05 -10.5408164141 0)
(7.87593583702e-05 -10.5399312523 0)
(4.86041150019e-05 -10.5392381597 0)
(2.27429110244e-05 -10.5389602845 0)
(-2622.94608579 -10.5387904939 0)
(2619.79367145 -14.0777019937 0)
(0.0454468007289 -13.9710982315 0)
(0.0689021547291 -13.7732309724 0)
(0.084415220127 -13.5097665159 0)
(0.0920634615224 -13.2084729274 0)
(0.093126117759 -12.8943383724 0)
(0.0894354008207 -12.5863997636 0)
(0.082758916099 -12.2972965312 0)
(0.0745241769218 -12.0342149198 0)
(0.0657591898677 -11.8002612026 0)
(0.0571369259939 -11.5957786781 0)
(0.0490564914264 -11.4194067028 0)
(0.0417240690603 -11.2688473442 0)
(0.0352188567553 -11.1413812864 0)
(0.0295415086173 -11.034194273 0)
(0.0246474850269 -10.9445706381 0)
(0.0204689422331 -10.8699982941 0)
(0.0169285208035 -10.8082171466 0)
(0.013947664824 -10.7572327975 0)
(0.0114513686657 -10.715309959 0)
(0.00937065303874 -10.680954828 0)
(0.00764363586685 -10.6528922031 0)
(0.00621576069285 -10.6300408563 0)
(0.00503954189094 -10.6114892143 0)
(0.00407405214819 -10.596472483 0)
(0.00328429111058 -10.5843517784 0)
(0.00264051848048 -10.5745954802 0)
(0.002117599693 -10.5667628198 0)
(0.00169439038132 -10.5604896009 0)
(0.00135317263814 -10.555475894 0)
(0.00107914972882 -10.551475516 0)
(0.000860004793002 -10.5482870919 0)
(0.000685525576537 -10.5457464741 0)
(0.000547281509133 -10.5437202994 0)
(0.000438450905487 -10.5421005819 0)
(0.000354297563866 -10.5407995395 0)
(0.00029178197642 -10.5397406699 0)
(0.000236891535648 -10.5388536379 0)
(0.000145589458705 -10.5381514204 0)
(6.67902376212e-05 -10.5378865905 0)
(-2620.83836414 -10.5377291997 0)
(2616.98825038 -14.0855533955 0)
(0.0760161322872 -13.9777201049 0)
(0.115197738955 -13.777800841 0)
(0.141053882721 -13.5120415604 0)
(0.15374307881 -13.20869023 0)
(0.155434260569 -12.8929612876 0)
(0.149205497978 -12.5839295035 0)
(0.138014911556 -12.294165456 0)
(0.124244665908 -12.0307486098 0)
(0.109606205383 -11.796681806 0)
(0.0952175909023 -11.5922250396 0)
(0.0817404574176 -11.4159572749 0)
(0.0695155556212 -11.2655399213 0)
(0.0586727617728 -11.1382279471 0)
(0.0492117096829 -11.0311918584 0)
(0.0410572144248 -10.9417077168 0)
(0.0340956069017 -10.8672595932 0)
(0.0281975984747 -10.8055862504 0)
(0.0232320625734 -10.7546937063 0)
(0.0190738884965 -10.7128479191 0)
(0.0156080699739 -10.6785567097 0)
(0.0127314651415 -10.6505466071 0)
(0.010353161437 -10.6277380648 0)
(0.00839404106702 -10.6092210595 0)
(0.00678592080426 -10.5942321784 0)
(0.00547049616174 -10.5821337392 0)
(0.00439822789387 -10.572395149 0)
(0.0035272504389 -10.5645765054 0)
(0.00282234558424 -10.5583143349 0)
(0.00225400284896 -10.5533093051 0)
(0.00179757741441 -10.5493157229 0)
(0.00143255513423 -10.5461326134 0)
(0.00114192834113 -10.5435961521 0)
(0.000911653756312 -10.541573226 0)
(0.000730343358861 -10.5399560738 0)
(0.000590119412196 -10.5386573226 0)
(0.000486421813578 -10.5376005931 0)
(0.000396609254088 -10.5367112988 0)
(0.000242013587396 -10.535995399 0)
(0.000107187053091 -10.5357503693 0)
(-2618.73096264 -10.5356085568 0)
(2614.18101675 -14.0974073678 0)
(0.106997311619 -13.9876998364 0)
(0.16203786362 -13.7846727666 0)
(0.198237342319 -13.5154512187 0)
(0.215879516089 -13.209002057 0)
(0.218078263077 -12.8908800303 0)
(0.209194567137 -12.5802126401 0)
(0.193395094835 -12.2894633901 0)
(0.174020906918 -12.0255495284 0)
(0.153463903906 -11.7913179206 0)
(0.133281832219 -11.5869034523 0)
(0.114393515084 -11.4107946502 0)
(0.0972699346253 -11.2605921704 0)
(0.0820884693395 -11.1335126273 0)
(0.0688455546693 -11.0267038441 0)
(0.0574339380603 -10.9374295993 0)
(0.0476932355102 -10.8631682877 0)
(0.0394416981801 -10.8016570158 0)
(0.0324953310814 -10.7509024631 0)
(0.0266787679902 -10.7091724812 0)
(0.0218309154528 -10.6749773426 0)
(0.0178073648509 -10.6470461819 0)
(0.0144808701995 -10.6243019816 0)
(0.0117407191715 -10.605837048 0)
(0.00949151621867 -10.5908900429 0)
(0.00765169698601 -10.5788250889 0)
(0.00615196523185 -10.5691131361 0)
(0.0049337625131 -10.5613155829 0)
(0.00394783043843 -10.5550700406 0)
(0.00315289503598 -10.550078074 0)
(0.00251448808433 -10.5460947254 0)
(0.00200391896429 -10.5429196204 0)
(0.0015974030433 -10.5403894211 0)
(0.00127529716473 -10.5383713965 0)
(0.00102163160137 -10.5367581126 0)
(0.000825393695142 -10.5354627119 0)
(0.000680986729845 -10.5344091219 0)
(0.000557930358353 -10.5335185767 0)
(0.000337775362988 -10.5327892306 0)
(0.000144158683712 -10.5325643909 0)
(-2616.62409236 -10.5324337415 0)
(2611.37122894 -14.1133436214 0)
(0.138563052528 -14.0010903495 0)
(0.209647462494 -13.7938633025 0)
(0.256188024641 -13.5199849916 0)
(0.278657316492 -13.2093841893 0)
(0.281192143941 -12.8880682973 0)
(0.269488826013 -12.5752273615 0)
(0.248947533898 -12.2831752222 0)
(0.223873759812 -12.0186090257 0)
(0.197335420609 -11.7841661381 0)
(0.171322244973 -11.579814369 0)
(0.147002713778 -11.4039219548 0)
(0.124971960212 -11.2540089897 0)
(0.105450427036 -11.1272413615 0)
(0.0884283152707 -11.0207369737 0)
(0.0737643257119 -10.9317434605 0)
(0.0612501236083 -10.8577318087 0)
(0.0506507633951 -10.7964370224 0)
(0.0417289694875 -10.7458667317 0)
(0.0342589126065 -10.7042913561 0)
(0.0280333298382 -10.6702244636 0)
(0.0228665373248 -10.6423986802 0)
(0.0185949882181 -10.6197403699 0)
(0.0150764288242 -10.6013449513 0)
(0.0121883126158 -10.586453856 0)
(0.009825877511 -10.5744336155 0)
(0.00790012911089 -10.5647572381 0)
(0.00633586952907 -10.5569878576 0)
(0.00506984735836 -10.5507645326 0)
(0.00404906590718 -10.5457900239 0)
(0.00322926813141 -10.541820355 0)
(0.00257361598921 -10.5386559523 0)
(0.00205157312537 -10.5361341275 0)
(0.0016379154449 -10.5341226644 0)
(0.00131208028183 -10.5325145591 0)
(0.00105991756883 -10.5312235541 0)
(0.000875248839532 -10.5301740692 0)
(0.000720587500159 -10.5292836435 0)
(0.000432850753712 -10.5285427748 0)
(0.000178284873353 -10.5283364564 0)
(-2614.51796301 -10.5282131723 0)
(2608.55812996 -14.1334684807 0)
(0.170893375383 -14.0179625627 0)
(0.258258935185 -13.8053943394 0)
(0.31513316496 -13.5256275941 0)
(0.342262854961 -13.209803209 0)
(0.344909628649 -12.8844902423 0)
(0.330173182163 -12.5689440471 0)
(0.304718761991 -12.2752803981 0)
(0.273822723737 -12.0099152109 0)
(0.241222835238 -11.7752215545 0)
(0.209330668879 -11.5709580108 0)
(0.179554590943 -11.3953429459 0)
(0.152606053276 -11.2457964742 0)
(0.128742872542 -11.1194217397 0)
(0.107945134872 -11.0132997668 0)
(0.0900349710609 -10.9246583837 0)
(0.0747545231216 -10.8509595729 0)
(0.061814713578 -10.7899358791 0)
(0.0509244643534 -10.7395962289 0)
(0.0418072216092 -10.69821432 0)
(0.0342094506326 -10.6643078823 0)
(0.027904183589 -10.6366139307 0)
(0.0226916159862 -10.6140630718 0)
(0.0183980219625 -10.5957546224 0)
(0.0148737833593 -10.5809334816 0)
(0.0119910205624 -10.5689691941 0)
(0.00964111682436 -10.559337342 0)
(0.00773230360671 -10.5516032289 0)
(0.00618739717693 -10.5454077226 0)
(0.00494173056411 -10.5404550788 0)
(0.00394130239323 -10.5365025475 0)
(0.00314116446134 -10.5333515557 0)
(0.00250406062758 -10.5308402276 0)
(0.00199921084514 -10.5288369953 0)
(0.00160145367081 -10.5272353883 0)
(0.00129349167739 -10.5259498262 0)
(0.00106896885313 -10.5249053888 0)
(0.000884189232547 -10.5240165368 0)
(0.000527212778285 -10.5232668842 0)
(0.000210079188519 -10.5230767765 0)
(-2612.41278243 -10.5229586656 0)
(2605.74094273 -14.1579176756 0)
(0.204177880788 -14.0384063248 0)
(0.308114456215 -13.8192931528 0)
(0.375306250718 -13.5323589099 0)
(0.406884786865 -13.2102166354 0)
(0.409363976318 -12.8801009637 0)
(0.391330794837 -12.5613260666 0)
(0.360753301151 -12.2657539232 0)
(0.323885528538 -11.9994540756 0)
(0.285126860619 -11.764478968 0)
(0.247297966688 -11.5603356167 0)
(0.212035021101 -11.3850633063 0)
(0.180156201454 -11.2359632502 0)
(0.151949768509 -11.1100642811 0)
(0.127380986476 -11.0044039315 0)
(0.106232364492 -10.9161868097 0)
(0.0881946245349 -10.8428644659 0)
(0.072923432201 -10.7821667387 0)
(0.0600732813023 -10.7321042685 0)
(0.0493165819228 -10.6909547854 0)
(0.0403534076922 -10.6572410743 0)
(0.0329154994333 -10.6297054533 0)
(0.0267668498883 -10.607283641 0)
(0.0217023468558 -10.5890796445 0)
(0.017545398277 -10.5743425298 0)
(0.01414510544 -10.5624454604 0)
(0.0113733221463 -10.5528671086 0)
(0.00912179339781 -10.5451753818 0)
(0.00729947737028 -10.5390133186 0)
(0.00583010092671 -10.5340869683 0)
(0.00464997276041 -10.5301550523 0)
(0.00370607997151 -10.5270201977 0)
(0.00295448519613 -10.5245215044 0)
(0.00235888331671 -10.5225281863 0)
(0.00188951411767 -10.520934411 0)
(0.00152591746281 -10.5196553506 0)
(0.0012619067027 -10.5186168951 0)
(0.00104828841876 -10.5177310775 0)
(0.000620802830197 -10.5169757337 0)
(0.000239928597067 -10.5167994885 0)
(-2610.30875592 -10.5166855769 0)
(2602.91886516 -14.1868585261 0)
(0.238618279946 -14.0625311241 0)
(0.359468418169 -13.8355918321 0)
(0.436948468428 -13.540153132 0)
(0.47271444419 -13.2105722724 0)
(0.474687742412 -12.8748462363 0)
(0.453042590272 -12.5523298237 0)
(0.417093160196 -12.2545665839 0)
(0.374077714773 -11.9872097937 0)
(0.329046527024 -11.7519332007 0)
(0.285213801228 -11.547949765 0)
(0.244429064245 -11.3730909572 0)
(0.207605858316 -11.2245207827 0)
(0.175054736274 -11.0991827379 0)
(0.146720629147 -10.9940646677 0)
(0.122342864186 -10.9063448418 0)
(0.101558537315 -10.8334631504 0)
(0.0839667530489 -10.7731466111 0)
(0.0691668550112 -10.7234080784 0)
(0.0567798604596 -10.6825301218 0)
(0.0464593170616 -10.6490415063 0)
(0.0378956702526 -10.6216907869 0)
(0.030816777748 -10.5994196749 0)
(0.0249862441919 -10.5813376653 0)
(0.020200620173 -10.5666986941 0)
(0.0162861048083 -10.5548801506 0)
(0.0130951325557 -10.545364314 0)
(0.0105030616123 -10.5377221297 0)
(0.00840507986992 -10.5315991687 0)
(0.00671338382083 -10.5267035725 0)
(0.00535465651721 -10.5227957784 0)
(0.00426787402991 -10.5196798132 0)
(0.00340246290182 -10.5171959152 0)
(0.00271662952639 -10.515214214 0)
(0.00217602081985 -10.5136296224 0)
(0.00175699485503 -10.5123581404 0)
(0.00145382345582 -10.5113266067 0)
(0.00121242151865 -10.5104452706 0)
(0.000713530583781 -10.5096873962 0)
(0.000268110547219 -10.5095228611 0)
(-2608.20608542 -10.509412908 0)
(2600.0910648 -14.2204923333 0)
(0.274431219603 -14.0904668304 0)
(0.412590054631 -13.8543264248 0)
(0.500310162648 -13.5489774999 0)
(0.539946166012 -13.2108072269 0)
(0.541012466061 -12.8686620004 0)
(0.515386725314 -12.5419046098 0)
(0.473777307147 -12.241684998 0)
(0.424412205182 -11.9731648455 0)
(0.372978866364 -11.7375792339 0)
(0.323066415388 -11.5338044934 0)
(0.276720817564 -11.3594361579 0)
(0.234937845311 -11.2114834556 0)
(0.198040991516 -11.086794162 0)
(0.165948565697 -10.9823007237 0)
(0.138352667934 -10.8951522967 0)
(0.114834270672 -10.8227761141 0)
(0.0949344466166 -10.7628964082 0)
(0.0781965791702 -10.7135288448 0)
(0.0641898963331 -10.6729617002 0)
(0.052521274664 -10.6397306815 0)
(0.042839865724 -10.6125915357 0)
(0.034837474211 -10.5904928606 0)
(0.0282465430125 -10.5725504442 0)
(0.0228369012116 -10.5580237988 0)
(0.0184119814604 -10.5462951491 0)
(0.0148049263409 -10.5368508979 0)
(0.0118748224584 -10.5292654636 0)
(0.00950318880486 -10.523187311 0)
(0.00759077899235 -10.5183269721 0)
(0.00605472462752 -10.5144468446 0)
(0.00482605260061 -10.5113525548 0)
(0.00384760502339 -10.5088856418 0)
(0.00307214187276 -10.5069172853 0)
(0.00246072884385 -10.5053432519 0)
(0.00198652059983 -10.5040804479 0)
(0.00164448066755 -10.5030567904 0)
(0.00137613052069 -10.5021813685 0)
(0.00080528472645 -10.5014240281 0)
(0.000294826235727 -10.5012692948 0)
(-2606.10496877 -10.5011634247 0)
(2597.25667332 -14.2590572247 0)
(0.311851461645 -14.1223645382 0)
(0.467766284273 -13.8755358516 0)
(0.56565230802 -13.5587907195 0)
(0.608777544075 -13.2108467165 0)
(0.608468265815 -12.861473751 0)
(0.578437990759 -12.5299924212 0)
(0.530841113061 -12.2270716539 0)
(0.474898867598 -11.9573001383 0)
(0.416918597453 -11.7214123361 0)
(0.36084241641 -11.5179054061 0)
(0.308893271791 -11.3441115869 0)
(0.262134257512 -11.1968686305 0)
(0.220891282663 -11.0729189463 0)
(0.185049002209 -10.9691344272 0)
(0.15424778611 -10.8826327277 0)
(0.128009715013 -10.8108276882 0)
(0.105816206899 -10.7514409613 0)
(0.0871537966031 -10.7024917294 0)
(0.0715394931267 -10.6622749102 0)
(0.0585333499577 -10.629334156 0)
(0.0477432344237 -10.6024333865 0)
(0.0388249960582 -10.5805289935 0)
(0.0314800565476 -10.5627438712 0)
(0.0254516791972 -10.5483438194 0)
(0.0205206849931 -10.536716509 0)
(0.0165010696472 -10.5273529852 0)
(0.0132357790003 -10.519831574 0)
(0.010592778175 -10.5138039956 0)
(0.00846147708345 -10.508983471 0)
(0.00674953997573 -10.5051346031 0)
(0.00538011460387 -10.5020648166 0)
(0.0042895167949 -10.4996171145 0)
(0.0034251074956 -10.4976638612 0)
(0.00274338829535 -10.4961017876 0)
(0.00221428716574 -10.4948487875 0)
(0.00183363935323 -10.4938339804 0)
(0.00153897397446 -10.4929658947 0)
(0.000895945316463 -10.492211975 0)
(0.000320231233083 -10.4920653467 0)
(-2604.00559888 -10.4919638068 0)
(2594.41478045 -14.3028315989 0)
(0.351135494214 -14.1583975315 0)
(0.525304818366 -13.8992605629 0)
(0.633247989668 -13.5695410697 0)
(0.679409559709 -13.2106026972 0)
(0.677183325118 -12.8531958724 0)
(0.642267144723 -12.516527792 0)
(0.588315763731 -12.2106849951 0)
(0.525544068758 -11.9395951771 0)
(0.460857812808 -11.7034282393 0)
(0.398526565223 -11.5002598261 0)
(0.340928172685 -11.3271324643 0)
(0.289176373428 -11.1806967447 0)
(0.243587832175 -11.0575809062 0)
(0.204005809406 -10.9545917546 0)
(0.170014015722 -10.8688134886 0)
(0.141072623953 -10.7976461085 0)
(0.116601638372 -10.7388090806 0)
(0.0960297894066 -10.6903259283 0)
(0.0788214110297 -10.6504992195 0)
(0.064489579402 -10.6178816009 0)
(0.0526008982118 -10.5912461718 0)
(0.0427753772716 -10.569558042 0)
(0.0346835778362 -10.5519480336 0)
(0.0280423736547 -10.5376889499 0)
(0.0226101482968 -10.5261745217 0)
(0.01818191333 -10.5169009562 0)
(0.0145846203838 -10.5094509222 0)
(0.0116728094001 -10.5034797572 0)
(0.00932465748557 -10.4987036698 0)
(0.00743845551293 -10.4948897125 0)
(0.00592955033409 -10.4918473083 0)
(0.00472779609945 -10.4894210867 0)
(0.00377520724484 -10.4874847321 0)
(0.00302374358136 -10.4859360512 0)
(0.00244008203066 -10.4846940101 0)
(0.00202105923536 -10.483689051 0)
(0.00170053160601 -10.4828297151 0)
(0.000985394333313 -10.482081894 0)
(0.000344459877829 -10.4819418232 0)
(-2601.90816294 -10.4818448357 0)
(2591.5644275 -14.3521382923 0)
(0.392565668846 -14.1987623659 0)
(0.585537576638 -13.9255408711 0)
(0.703383881159 -13.5811641576 0)
(0.752046583535 -13.2099723098 0)
(0.747283246858 -12.8437309364 0)
(0.706940166209 -12.5014376621 0)
(0.646227636044 -12.1924795629 0)
(0.576350218757 -11.9200282974 0)
(0.504785667647 -11.6836233737 0)
(0.43610157142 -11.4808770007 0)
(0.372805888075 -11.3085167257 0)
(0.316044569123 -11.1629914589 0)
(0.266112280681 -11.0408074084 0)
(0.222802485729 -10.9387024493 0)
(0.185636915336 -10.8537258452 0)
(0.154010596622 -10.7832636243 0)
(0.127280242929 -10.7250336644 0)
(0.104815768816 -10.6770647832 0)
(0.0860283586091 -10.6376682882 0)
(0.070383959511 -10.6054069182 0)
(0.0574079462047 -10.5790639886 0)
(0.0466846236962 -10.5576142685 0)
(0.0378538749594 -10.5401973391 0)
(0.0306063815655 -10.5260937287 0)
(0.0246782837374 -10.5147038442 0)
(0.0198457895557 -10.5055295756 0)
(0.0159200188085 -10.4981583707 0)
(0.0127422286589 -10.4922495465 0)
(0.0101794860149 -10.4875225978 0)
(0.00812081225784 -10.483747272 0)
(0.00647383976065 -10.4807351899 0)
(0.00516203205446 -10.4783327704 0)
(0.00412211459349 -10.476415153 0)
(0.00330153268332 -10.4748813344 0)
(0.00266368721693 -10.4736514388 0)
(0.00220649836603 -10.4726573498 0)
(0.00186040537543 -10.4718081699 0)
(0.00107352367742 -10.4710689141 0)
(0.000367642898787 -10.4709339366 0)
(-2599.81284154 -10.4708416115 0)
(2588.70460032 -14.4073495971 0)
(0.436454978457 -14.2436800505 0)
(0.648824460019 -13.9544148658 0)
(0.776361701917 -13.5935802714 0)
(0.826896203953 -13.2088361376 0)
(0.818890254656 -12.8329689701 0)
(0.772517419417 -12.4846412876 0)
(0.704597636684 -12.1724062015 0)
(0.627315306591 -11.8985769584 0)
(0.548688072135 -11.6619951553 0)
(0.473547894833 -11.4597683545 0)
(0.404505281061 -11.2882852381 0)
(0.342718236875 -11.1437798445 0)
(0.288445634081 -11.0226295397 0)
(0.241422122063 -10.9215001792 0)
(0.201101780725 -10.8374051275 0)
(0.166811060116 -10.7677166497 0)
(0.137841406598 -10.7101518507 0)
(0.113502864631 -10.6627459349 0)
(0.0931529840362 -10.6238201243 0)
(0.0762104393253 -10.5919483997 0)
(0.0621594281537 -10.5659253609 0)
(0.0505487071685 -10.5447363949 0)
(0.0409876857781 -10.5275306844 0)
(0.033141072638 -10.5135972093 0)
(0.0267229789294 -10.5023436719 0)
(0.0214910080394 -10.4932781677 0)
(0.0172406262052 -10.4859933603 0)
(0.0137999639664 -10.4801529089 0)
(0.0110251123767 -10.4754798938 0)
(0.0087959371044 -10.4717470022 0)
(0.00701245066138 -10.468768253 0)
(0.00559180347559 -10.466392018 0)
(0.00446549444685 -10.4644950273 0)
(0.00357648641078 -10.4629775818 0)
(0.00288487894573 -10.4617610528 0)
(0.00238971302415 -10.4607788811 0)
(0.00201821874302 -10.4599412557 0)
(0.00116024099924 -10.4592128323 0)
(0.000389920407611 -10.4590815045 0)
(-2597.71980783 -10.4589937901 0)
(2585.83422157 -14.4688932849 0)
(0.483152615104 -14.2933973033 0)
(0.715557532449 -13.9859157972 0)
(0.852499626808 -13.606691266 0)
(0.904168843797 -13.2070562626 0)
(0.892122216848 -12.8207867016 0)
(0.83905271994 -12.4660501983 0)
(0.763440501886 -12.1504123239 0)
(0.678432427997 -11.8752180905 0)
(0.592547388431 -11.6385423179 0)
(0.510843554854 -11.436947778 0)
(0.436003590078 -11.266462047 0)
(0.369175708808 -11.1230925993 0)
(0.310568213744 -11.0030823012 0)
(0.259847368159 -10.903022719 0)
(0.216393621227 -10.8198909071 0)
(0.17946125199 -10.7510459384 0)
(0.148274385901 -10.6942051937 0)
(0.122082114093 -10.6474115022 0)
(0.100187865645 -10.6089972662 0)
(0.0819629121875 -10.5775489135 0)
(0.0668503471708 -10.5518734289 0)
(0.0543635589887 -10.5309677957 0)
(0.0440817120796 -10.5139916511 0)
(0.0356437840729 -10.500243159 0)
(0.0287420920573 -10.4891379404 0)
(0.0231158518843 -10.4801908201 0)
(0.0185450705578 -10.4730001157 0)
(0.0148449219551 -10.4672341918 0)
(0.0118606673594 -10.4626200138 0)
(0.00946314041209 -10.4589334548 0)
(0.00754483658954 -10.4559911325 0)
(0.0060166771904 -10.4536435349 0)
(0.00480500184339 -10.4517691188 0)
(0.00384832759708 -10.4502696045 0)
(0.00310342734498 -10.4490676999 0)
(0.00257045778764 -10.4480985184 0)
(0.00217361513595 -10.4472738365 0)
(0.00124547390464 -10.4465583311 0)
(0.000411451339797 -10.4464291761 0)
(-2595.62922649 -10.4463458302 0)
(2582.9521422 -14.5372598227 0)
(0.533050475998 -14.3481878381 0)
(0.786165667485 -14.0200687851 0)
(0.932133608838 -13.6203769094 0)
(0.984077116823 -13.204474115 0)
(0.967091467516 -12.8070467951 0)
(0.906592294965 -12.4455682119 0)
(0.822764058246 -12.1264422398 0)
(0.729689307794 -11.8499284908 0)
(0.636342134627 -11.6132652806 0)
(0.547963949008 -11.4124319418 0)
(0.467276316809 -11.2430746419 0)
(0.395394186029 -11.1009642771 0)
(0.332459610134 -10.9822048163 0)
(0.278060400881 -10.8833121447 0)
(0.231497136836 -10.8012271845 0)
(0.1919482028 -10.73329677 0)
(0.158568293838 -10.6772398506 0)
(0.130544450139 -10.6311082717 0)
(0.10712550179 -10.5932469756 0)
(0.087635206786 -10.5622560999 0)
(0.071475651713 -10.5369561492 0)
(0.0581250627347 -10.5163567013 0)
(0.0471326131189 -10.4996287121 0)
(0.0381118147641 -10.486080269 0)
(0.030733446699 -10.4751355377 0)
(0.0247185729879 -10.4663165984 0)
(0.0198319518653 -10.4592278619 0)
(0.0158759843389 -10.4535427626 0)
(0.0126852597753 -10.4489924513 0)
(0.0101217133778 -10.4453562337 0)
(0.00807043464405 -10.4424535274 0)
(0.00643620620292 -10.4401371014 0)
(0.00514028053691 -10.4382872749 0)
(0.00411677020137 -10.4368073033 0)
(0.00331909616192 -10.4356213212 0)
(0.0027484856895 -10.4346662278 0)
(0.00232625619943 -10.4338558682 0)
(0.00132917308618 -10.4331552028 0)
(0.000432420580662 -10.433026664 0)
(-2593.54125282 -10.4329472375 0)
(2580.05713204 -14.6130110169 0)
(0.586590822618 -14.4083536249 0)
(0.861119718192 -14.0568866822 0)
(1.01561856083 -13.6344906108 0)
(1.06683486664 -13.2009081141 0)
(1.04390339747 -12.7915970934 0)
(0.975173631004 -12.4230915165 0)
(0.88256844611 -12.100437546 0)
(0.781067819835 -11.8226852637 0)
(0.680046698244 -11.5861665408 0)
(0.5848816826 -11.3862406244 0)
(0.49829712301 -11.2181542286 0)
(0.421349673932 -11.0774335207 0)
(0.354098640227 -10.9600405366 0)
(0.296042894505 -10.8624150254 0)
(0.246396696165 -10.7814625741 0)
(0.204258718768 -10.7145191321 0)
(0.168712085564 -10.6593067645 0)
(0.138880689108 -10.6138878821 0)
(0.113958300008 -10.5766214254 0)
(0.0932210774673 -10.5461225632 0)
(0.0760302268753 -10.5212264899 0)
(0.0618290464003 -10.5009563967 0)
(0.050136998541 -10.4844954339 0)
(0.0405424189577 -10.4711623586 0)
(0.0326948261777 -10.4603905107 0)
(0.0262973870441 -10.4517097548 0)
(0.0210998377332 -10.4447310349 0)
(0.0168920040682 -10.4391332209 0)
(0.0134979731296 -10.4346519506 0)
(0.0107709251881 -10.4310702095 0)
(0.00858866305927 -10.4282104177 0)
(0.00684992769717 -10.4259277896 0)
(0.00547096145174 -10.4241046441 0)
(0.00438151833341 -10.4226458872 0)
(0.00353164244187 -10.4214771692 0)
(0.0029235483896 -10.4205372872 0)
(0.0024758201456 -10.419742616 0)
(0.00141131473774 -10.4190585666 0)
(0.000453044406192 -10.418928969 0)
(-2591.45603171 -10.4188527951 0)
(2577.14786927 -14.6967903757 0)
(0.644275342933 -14.4742260424 0)
(0.9409382703 -14.0963648738 0)
(1.10332932246 -13.6488544443 0)
(1.15265582032 -13.1961511076 0)
(1.12265478705 -12.7742698924 0)
(1.04482420443 -12.3985088336 0)
(0.942845308798 -12.0723375841 0)
(0.832543508844 -11.7934662994 0)
(0.72363106248 -11.5572510858 0)
(0.621566411442 -11.3583970457 0)
(0.529037737546 -11.1917359985 0)
(0.447016924437 -11.0525432858 0)
(0.375463309196 -10.9366374382 0)
(0.313775993381 -10.8403826024 0)
(0.261076315499 -10.7606504741 0)
(0.216379364717 -10.6947678872 0)
(0.178694543835 -10.6404618303 0)
(0.147081517947 -10.5958069928 0)
(0.120678565578 -10.5591778704 0)
(0.0987141938976 -10.5292060449 0)
(0.0805088850136 -10.5047426068 0)
(0.0654712739235 -10.4848254002 0)
(0.0530914207445 -10.4686506579 0)
(0.0429327994102 -10.4555485591 0)
(0.0346239674609 -10.4449622522 0)
(0.0278504681415 -10.4364299166 0)
(0.0223472586355 -10.4295694723 0)
(0.0178918012027 -10.4240655908 0)
(0.0142978620505 -10.4196587 0)
(0.0114100199627 -10.4161357139 0)
(0.00909891862629 -10.4133222583 0)
(0.00725736091511 -10.4110761593 0)
(0.00579666102239 -10.4092818723 0)
(0.00464226517806 -10.4078460694 0)
(0.00374081615263 -10.4066960048 0)
(0.00309539634442 -10.4057724828 0)
(0.00262200033575 -10.4049948521 0)
(0.00149190248534 -10.4043290627 0)
(0.000473574868936 -10.4041965811 0)
(-2589.37369647 -10.4041227698 0)
(2574.22292875 -14.7893355563 0)
(0.706675922998 -14.546166803 0)
(1.0261940378 -14.1384747493 0)
(1.19566131406 -13.6632533757 0)
(1.24175177702 -13.1899676293 0)
(1.20343185226 -12.7548812811 0)
(1.11556009268 -12.3717016838 0)
(1.00357695295 -12.0420799679 0)
(0.884085119488 -11.7622507897 0)
(0.76706054898 -11.5265268159 0)
(0.657984700067 -11.328928195 0)
(0.559467875 -11.1638593835 0)
(0.472369385993 -11.0263410459 0)
(0.396530776911 -10.9120481943 0)
(0.331240287326 -10.8172709426 0)
(0.275519639202 -10.7388492103 0)
(0.228296447513 -10.674102911 0)
(0.188504264438 -10.6207660327 0)
(0.1551374811 -10.5769274211 0)
(0.127278489584 -10.540978786 0)
(0.10410813018 -10.5115695655 0)
(0.0849063558276 -10.4875679876 0)
(0.0690474361765 -10.4680276104 0)
(0.0559923667565 -10.4521586494 0)
(0.0452801000974 -10.4393034655 0)
(0.0365185546769 -10.4289156535 0)
(0.029375943036 -10.4205422411 0)
(0.0235727028911 -10.4138085684 0)
(0.0188741585303 -10.4084054773 0)
(0.015083948517 -10.4040784894 0)
(0.0120382135211 -10.4006186979 0)
(0.00960057397247 -10.3978551391 0)
(0.00765800490292 -10.3956484175 0)
(0.00611697942678 -10.3938852628 0)
(0.0048986918223 -10.3924742289 0)
(0.00394635975993 -10.3913442587 0)
(0.00326377894434 -10.3904382709 0)
(0.00276450417818 -10.3896790173 0)
(0.0015709689244 -10.3890330111 0)
(0.000494302973844 -10.3888956457 0)
(-2587.29436784 -10.3888230798 0)
(2571.2807688 -14.8914933554 0)
(0.774447504333 -14.6245684873 0)
(1.11752095576 -14.1831555138 0)
(1.29303074646 -13.6774285994 0)
(1.33433023923 -13.1820910082 0)
(1.28630797616 -12.7332305864 0)
(1.18738446707 -12.3425447713 0)
(1.06473548761 -12.0096011876 0)
(0.935654139254 -11.7290197748 0)
(0.810295581418 -11.4940049699 0)
(0.694099897914 -11.297865146 0)
(0.589555167368 -11.1345682888 0)
(0.497379162279 -10.9988789688 0)
(0.417277329845 -10.8863303159 0)
(0.348415790172 -10.793141058 0)
(0.289709921821 -10.7161221425 0)
(0.239996000254 -10.6525891926 0)
(0.198129641826 -10.6002855422 0)
(0.163038967271 -10.5573162386 0)
(0.133750136693 -10.522091966 0)
(0.109396353583 -10.4932815222 0)
(0.0892172760335 -10.4697715514 0)
(0.0725531415635 -10.4506324073 0)
(0.0588362497303 -10.4350892004 0)
(0.0475813985913 -10.42249724 0)
(0.0383762123281 -10.4123212097 0)
(0.0308718851561 -10.4041175218 0)
(0.0247746114096 -10.3975193826 0)
(0.0198378170079 -10.3922241747 0)
(0.015855217917 -10.3879828199 0)
(0.0126546900283 -10.3845908422 0)
(0.0100929747198 -10.3818808948 0)
(0.00805133616264 -10.3797165292 0)
(0.00643149874474 -10.377986888 0)
(0.00515046600903 -10.3766025211 0)
(0.00414800774044 -10.375494143 0)
(0.00342844462763 -10.3746068896 0)
(0.00290305230868 -10.3738673329 0)
(0.0016485768011 -10.3732425203 0)
(0.000515561114903 -10.3730980784 0)
(-2585.21815273 -10.3730254129 0)
(2568.31971638 -15.0042378177 0)
(0.848343491323 -14.7098544551 0)
(1.21562201539 -14.2303039255 0)
(1.39587421517 -13.6910698915 0)
(1.43059137962 -13.1722203825 0)
(1.37134109964 -12.7090999766 0)
(1.26028597244 -12.3109065153 0)
(1.12628195225 -11.9748372929 0)
(0.98720436302 -11.6937567189 0)
(0.853291474743 -11.4597005472 0)
(0.729872036297 -11.2652433492 0)
(0.619265110444 -11.1039112913 0)
(0.522016980574 -10.9702140533 0)
(0.437678359065 -10.8595462486 0)
(0.365281921993 -10.7680589775 0)
(0.303630012283 -10.6925377218 0)
(0.25146376759 -10.6302968833 0)
(0.207558855246 -10.5790917604 0)
(0.170776196336 -10.5370458137 0)
(0.140085432865 -10.5025905632 0)
(0.114572213098 -10.4744157308 0)
(0.0934361788061 -10.4514276907 0)
(0.0759839063796 -10.4327146947 0)
(0.0616194002135 -10.4175176728 0)
(0.0498336982291 -10.4052056565 0)
(0.0401944983202 -10.3952550647 0)
(0.0323363084531 -10.3872322334 0)
(0.025951372302 -10.3807786845 0)
(0.0207814710731 -10.3755987132 0)
(0.0166106150168 -10.3714489498 0)
(0.0132585985502 -10.3681296032 0)
(0.0105754365832 -10.365477152 0)
(0.00843680625754 -10.3633582645 0)
(0.00673978104552 -10.3616646358 0)
(0.00539724082754 -10.3603089259 0)
(0.00434548604857 -10.3592236991 0)
(0.00358914096302 -10.3583564069 0)
(0.0030373780522 -10.3576378486 0)
(0.00172481981386 -10.3570355331 0)
(0.000537724443663 -10.3568816178 0)
(-2583.14514314 -10.3568072826 0)
(2565.33795035 -15.1286921894 0)
(0.929234282776 -14.8024778103 0)
(1.32127786848 -14.279761447 0)
(1.50464745506 -13.7038068946 0)
(1.53072422223 -13.1600176978 0)
(1.4585707496 -12.6822542832 0)
(1.3342370038 -12.2766497497 0)
(1.18816544688 -11.937724662 0)
(1.0386814884 -11.656448108 0)
(0.895998255374 -11.4236327156 0)
(0.765257749082 -11.2311028913 0)
(0.648561026541 -11.0719417964 0)
(0.546252170831 -10.940408217 0)
(0.457708345009 -10.8317634167 0)
(0.381817495527 -10.7420957633 0)
(0.317262340653 -10.6681694896 0)
(0.262685192541 -10.6073012849 0)
(0.216779855743 -10.5572613011 0)
(0.17833920671 -10.5161937891 0)