/*--------------------------------*- C++ -*----------------------------------*\
| =========                 |                                                 |
| \\      /  F ield         | OpenFOAM: The Open Source CFD Toolbox           |
|  \\    /   O peration     | Version:  2112                                  |
|   \\  /    A nd           | Website:  www.openfoam.com                      |
|    \\/     M anipulation  |                                                 |
\*---------------------------------------------------------------------------*/
FoamFile
{
    version     2.0;
    format      ascii;
    arch        "LSB;label=32;scalar=64";
    class       volScalarField;
    location    "1";
    object      gradTx;
}
// * * * * * * * * * * * * * * * * * * * * * * * * * * * * * * * * * * * * * //

dimensions      [0 -1 0 1 0 0 0];

internalField   nonuniform List<scalar> 
1681
(
2622.59801043
0.0151219280231
0.0229313958377
0.0281022737187
0.0306574501195
0.0310196278019
0.0297971297329
0.0275779428021
0.02483760018
0.0219189570446
0.0190466909418
0.0163541906377
0.0139104723586
0.0117421475301
0.00984958000561
0.00821801864315
0.00682490861382
0.00564449916172
0.00465062505565
0.00381829459302
0.00312451878691
0.00254867080188
0.00207256368033
0.00168036639393
0.00135843361292
0.00109509561409
0.000880436173191
0.00070607456664
0.000564960432622
0.000451185869685
0.000359816988002
0.000286746773342
0.000228569847032
0.000182475299955
0.000146191377392
0.000118137017675
9.72414883286e-05
7.87593583702e-05
4.86041150019e-05
2.27429110244e-05
-2622.94608579
2619.79367145
0.0454468007289
0.0689021547291
0.084415220127
0.0920634615224
0.093126117759
0.0894354008207
0.082758916099
0.0745241769218
0.0657591898677
0.0571369259939
0.0490564914264
0.0417240690603
0.0352188567553
0.0295415086173
0.0246474850269
0.0204689422331
0.0169285208035
0.013947664824
0.0114513686657
0.00937065303874
0.00764363586685
0.00621576069285
0.00503954189094
0.00407405214819
0.00328429111058
0.00264051848048
0.002117599693
0.00169439038132
0.00135317263814
0.00107914972882
0.000860004793002
0.000685525576537
0.000547281509133
0.000438450905487
0.000354297563866
0.00029178197642
0.000236891535648
0.000145589458705
6.67902376212e-05
-2620.83836414
2616.98825038
0.0760161322872
0.115197738955
0.141053882721
0.15374307881
0.155434260569
0.149205497978
0.138014911556
0.124244665908
0.109606205383
0.0952175909023
0.0817404574176
0.0695155556212
0.0586727617728
0.0492117096829
0.0410572144248
0.0340956069017
0.0281975984747
0.0232320625734
0.0190738884965
0.0156080699739
0.0127314651415
0.010353161437
0.00839404106702
0.00678592080426
0.00547049616174
0.00439822789387
0.0035272504389
0.00282234558424
0.00225400284896
0.00179757741441
0.00143255513423
0.00114192834113
0.000911653756312
0.000730343358861
0.000590119412196
0.000486421813578
0.000396609254088
0.000242013587396
0.000107187053091
-2618.73096264
2614.18101675
0.106997311619
0.16203786362
0.198237342319
0.215879516089
0.218078263077
0.209194567137
0.193395094835
0.174020906918
0.153463903906
0.133281832219
0.114393515084
0.0972699346253
0.0820884693395
0.0688455546693
0.0574339380603
0.0476932355102
0.0394416981801
0.0324953310814
0.0266787679902
0.0218309154528
0.0178073648509
0.0144808701995
0.0117407191715
0.00949151621867
0.00765169698601
0.00615196523185
0.0049337625131
0.00394783043843
0.00315289503598
0.00251448808433
0.00200391896429
0.0015974030433
0.00127529716473
0.00102163160137
0.000825393695142
0.000680986729845
0.000557930358353
0.000337775362988
0.000144158683712
-2616.62409236
2611.37122894
0.138563052528
0.209647462494
0.256188024641
0.278657316492
0.281192143941
0.269488826013
0.248947533898
0.223873759812
0.197335420609
0.171322244973
0.147002713778
0.124971960212
0.105450427036
0.0884283152707
0.0737643257119
0.0612501236083
0.0506507633951
0.0417289694875
0.0342589126065
0.0280333298382
0.0228665373248
0.0185949882181
0.0150764288242
0.0121883126158
0.009825877511
0.00790012911089
0.00633586952907
0.00506984735836
0.00404906590718
0.00322926813141
0.00257361598921
0.00205157312537
0.0016379154449
0.00131208028183
0.00105991756883
0.000875248839532
0.000720587500159
0.000432850753712
0.000178284873353
-2614.51796301
2608.55812996
0.170893375383
0.258258935185
0.31513316496
0.342262854961
0.344909628649
0.330173182163
0.304718761991
0.273822723737
0.241222835238
0.209330668879
0.179554590943
0.152606053276
0.128742872542
0.107945134872
0.0900349710609
0.0747545231216
0.061814713578
0.0509244643534
0.0418072216092
0.0342094506326
0.027904183589
0.0226916159862
0.0183980219625
0.0148737833593
0.0119910205624
0.00964111682436
0.00773230360671
0.00618739717693
0.00494173056411
0.00394130239323
0.00314116446134
0.00250406062758
0.00199921084514
0.00160145367081
0.00129349167739
0.00106896885313
0.000884189232547
0.000527212778285
0.000210079188519
-2612.41278243
2605.74094273
0.204177880788
0.308114456215
0.375306250718
0.406884786865
0.409363976318
0.391330794837
0.360753301151
0.323885528538
0.285126860619
0.247297966688
0.212035021101
0.180156201454
0.151949768509
0.127380986476
0.106232364492
0.0881946245349
0.072923432201
0.0600732813023
0.0493165819228
0.0403534076922
0.0329154994333
0.0267668498883
0.0217023468558
0.017545398277
0.01414510544
0.0113733221463
0.00912179339781
0.00729947737028
0.00583010092671
0.00464997276041
0.00370607997151
0.00295448519613
0.00235888331671
0.00188951411767
0.00152591746281
0.0012619067027
0.00104828841876
0.000620802830197
0.000239928597067
-2610.30875592
2602.91886516
0.238618279946
0.359468418169
0.436948468428
0.47271444419
0.474687742412
0.453042590272
0.417093160196
0.374077714773
0.329046527024
0.285213801228
0.244429064245
0.207605858316
0.175054736274
0.146720629147
0.122342864186
0.101558537315
0.0839667530489
0.0691668550112
0.0567798604596
0.0464593170616
0.0378956702526
0.030816777748
0.0249862441919
0.020200620173
0.0162861048083
0.0130951325557
0.0105030616123
0.00840507986992
0.00671338382083
0.00535465651721
0.00426787402991
0.00340246290182
0.00271662952639
0.00217602081985
0.00175699485503
0.00145382345582
0.00121242151865
0.000713530583781
0.000268110547219
-2608.20608542
2600.0910648
0.274431219603
0.412590054631
0.500310162648
0.539946166012
0.541012466061
0.515386725314
0.473777307147
0.424412205182
0.372978866364
0.323066415388
0.276720817564
0.234937845311
0.198040991516
0.165948565697
0.138352667934
0.114834270672
0.0949344466166
0.0781965791702
0.0641898963331
0.052521274664
0.042839865724
0.034837474211
0.0282465430125
0.0228369012116
0.0184119814604
0.0148049263409
0.0118748224584
0.00950318880486
0.00759077899235
0.00605472462752
0.00482605260061
0.00384760502339
0.00307214187276
0.00246072884385
0.00198652059983
0.00164448066755
0.00137613052069
0.00080528472645
0.000294826235727
-2606.10496877
2597.25667332
0.311851461645
0.467766284273
0.56565230802
0.608777544075
0.608468265815
0.578437990759
0.530841113061
0.474898867598
0.416918597453
0.36084241641
0.308893271791
0.262134257512
0.220891282663
0.185049002209
0.15424778611
0.128009715013
0.105816206899
0.0871537966031
0.0715394931267
0.0585333499577
0.0477432344237
0.0388249960582
0.0314800565476
0.0254516791972
0.0205206849931
0.0165010696472
0.0132357790003
0.010592778175
0.00846147708345
0.00674953997573
0.00538011460387
0.0042895167949
0.0034251074956
0.00274338829535
0.00221428716574
0.00183363935323
0.00153897397446
0.000895945316463
0.000320231233083
-2604.00559888
2594.41478045
0.351135494214
0.525304818366
0.633247989668
0.679409559709
0.677183325118
0.642267144723
0.588315763731
0.525544068758
0.460857812808
0.398526565223
0.340928172685
0.289176373428
0.243587832175
0.204005809406
0.170014015722
0.141072623953
0.116601638372
0.0960297894066
0.0788214110297
0.064489579402
0.0526008982118
0.0427753772716
0.0346835778362
0.0280423736547
0.0226101482968
0.01818191333
0.0145846203838
0.0116728094001
0.00932465748557
0.00743845551293
0.00592955033409
0.00472779609945
0.00377520724484
0.00302374358136
0.00244008203066
0.00202105923536
0.00170053160601
0.000985394333313
0.000344459877829
-2601.90816294
2591.5644275
0.392565668846
0.585537576638
0.703383881159
0.752046583535
0.747283246858
0.706940166209
0.646227636044
0.576350218757
0.504785667647
0.43610157142
0.372805888075
0.316044569123
0.266112280681
0.222802485729
0.185636915336
0.154010596622
0.127280242929
0.104815768816
0.0860283586091
0.070383959511
0.0574079462047
0.0466846236962
0.0378538749594
0.0306063815655
0.0246782837374
0.0198457895557
0.0159200188085
0.0127422286589
0.0101794860149
0.00812081225784
0.00647383976065
0.00516203205446
0.00412211459349
0.00330153268332
0.00266368721693
0.00220649836603
0.00186040537543
0.00107352367742
0.000367642898787
-2599.81284154
2588.70460032
0.436454978457
0.648824460019
0.776361701917
0.826896203953
0.818890254656
0.772517419417
0.704597636684
0.627315306591
0.548688072135
0.473547894833
0.404505281061
0.342718236875
0.288445634081
0.241422122063
0.201101780725
0.166811060116
0.137841406598
0.113502864631
0.0931529840362
0.0762104393253
0.0621594281537
0.0505487071685
0.0409876857781
0.033141072638
0.0267229789294
0.0214910080394
0.0172406262052
0.0137999639664
0.0110251123767
0.0087959371044
0.00701245066138
0.00559180347559
0.00446549444685
0.00357648641078
0.00288487894573
0.00238971302415
0.00201821874302
0.00116024099924
0.000389920407611
-2597.71980783
2585.83422157
0.483152615104
0.715557532449
0.852499626808
0.904168843797
0.892122216848
0.83905271994
0.763440501886
0.678432427997
0.592547388431
0.510843554854
0.436003590078
0.369175708808
0.310568213744
0.259847368159
0.216393621227
0.17946125199
0.148274385901
0.122082114093
0.100187865645
0.0819629121875
0.0668503471708
0.0543635589887
0.0440817120796
0.0356437840729
0.0287420920573
0.0231158518843
0.0185450705578
0.0148449219551
0.0118606673594
0.00946314041209
0.00754483658954
0.0060166771904
0.00480500184339
0.00384832759708
0.00310342734498
0.00257045778764
0.00217361513595
0.00124547390464
0.000411451339797
-2595.62922649
2582.9521422
0.533050475998
0.786165667485
0.932133608838
0.984077116823
0.967091467516
0.906592294965
0.822764058246
0.729689307794
0.636342134627
0.547963949008
0.467276316809
0.395394186029
0.332459610134
0.278060400881
0.231497136836
0.1919482028
0.158568293838
0.130544450139
0.10712550179
0.087635206786
0.071475651713
0.0581250627347
0.0471326131189
0.0381118147641
0.030733446699
0.0247185729879
0.0198319518653
0.0158759843389
0.0126852597753
0.0101217133778
0.00807043464405
0.00643620620292
0.00514028053691
0.00411677020137
0.00331909616192
0.0027484856895
0.00232625619943
0.00132917308618
0.000432420580662
-2593.54125282
2580.05713204
0.586590822618
0.861119718192
1.01561856083
1.06683486664
1.04390339747
0.975173631004
0.88256844611
0.781067819835
0.680046698244
0.5848816826
0.49829712301
0.421349673932
0.354098640227
0.296042894505
0.246396696165
0.204258718768
0.168712085564
0.138880689108
0.113958300008
0.0932210774673
0.0760302268753
0.0618290464003
0.050136998541
0.0405424189577
0.0326948261777
0.0262973870441
0.0210998377332
0.0168920040682
0.0134979731296
0.0107709251881
0.00858866305927
0.00684992769717
0.00547096145174
0.00438151833341
0.00353164244187
0.0029235483896
0.0024758201456
0.00141131473774
0.000453044406192
-2591.45603171
2577.14786927
0.644275342933
0.9409382703
1.10332932246
1.15265582032
1.12265478705
1.04482420443
0.942845308798
0.832543508844
0.72363106248
0.621566411442
0.529037737546
0.447016924437
0.375463309196
0.313775993381
0.261076315499
0.216379364717
0.178694543835
0.147081517947
0.120678565578
0.0987141938976
0.0805088850136
0.0654712739235
0.0530914207445
0.0429327994102
0.0346239674609
0.0278504681415
0.0223472586355
0.0178918012027
0.0142978620505
0.0114100199627
0.00909891862629
0.00725736091511
0.00579666102239
0.00464226517806
0.00374081615263
0.00309539634442
0.00262200033575
0.00149190248534
0.000473574868936
-2589.37369647
2574.22292875
0.706675922998
1.0261940378
1.19566131406
1.24175177702
1.20343185226
1.11556009268
1.00357695295
0.884085119488
0.76706054898
0.657984700067
0.559467875
0.472369385993
0.396530776911
0.331240287326
0.275519639202
0.228296447513
0.188504264438
0.1551374811
0.127278489584
0.10410813018
0.0849063558276
0.0690474361765
0.0559923667565
0.0452801000974
0.0365185546769
0.029375943036
0.0235727028911
0.0188741585303
0.015083948517
0.0120382135211
0.00960057397247
0.00765800490292
0.00611697942678
0.0048986918223
0.00394635975993
0.00326377894434
0.00276450417818
0.0015709689244
0.000494302973844
-2587.29436784
2571.2807688
0.774447504333
1.11752095576
1.29303074646
1.33433023923
1.28630797616
1.18738446707
1.06473548761
0.935654139254
0.810295581418
0.694099897914
0.589555167368
0.497379162279
0.417277329845
0.348415790172
0.289709921821
0.239996000254
0.198129641826
0.163038967271
0.133750136693
0.109396353583
0.0892172760335
0.0725531415635
0.0588362497303
0.0475813985913
0.0383762123281
0.0308718851561
0.0247746114096
0.0198378170079
0.015855217917
0.0126546900283
0.0100929747198
0.00805133616264
0.00643149874474
0.00515046600903
0.00414800774044
0.00342844462763
0.00290305230868
0.0016485768011
0.000515561114903
-2585.21815273
2568.31971638
0.848343491323
1.21562201539
1.39587421517
1.43059137962
1.37134109964
1.26028597244
1.12628195225
0.98720436302
0.853291474743
0.729872036297
0.619265110444
0.522016980574
0.437678359065
0.365281921993
0.303630012283
0.25146376759
0.207558855246
0.170776196336
0.140085432865
0.114572213098
0.0934361788061
0.0759839063796
0.0616194002135
0.0498336982291
0.0401944983202
0.0323363084531
0.025951372302
0.0207814710731
0.0166106150168
0.0132585985502
0.0105754365832
0.00843680625754
0.00673978104552
0.00539724082754
0.00434548604857
0.00358914096302
0.0030373780522
0.00172481981386
0.000537724443663
-2583.14514314
2565.33795035
0.929234282776
1.32127786848
1.50464745506
1.53072422223
1.4585707496
1.3342370038
1.18816544688
1.0386814884
0.895998255374
0.765257749082
0.648561026541
0.546252170831
0.457708345009
0.381817495527
0.317262340653
0.262685192541
0.216779855743
0.17833920671
0.146276153283
0.119628928083
0.0975574832417
0.0793351451344
0.0643380573779
0.0520339202251
0.0419708969435
0.0337671611964
0.02710131546
0.0217037639424
0.017349039904
0.0138490495906
0.0110472424601
0.0088138393897
0.00704136646491
0.00563865336019
0.00453851155544
0.00374561471751
0.00316722706895
0.00179982296711
0.000561211211455
-2581.07541495
2562.33348238
1.01812963982
1.43535619853
1.619822965
1.63490190189
1.54801468925
1.40919189669
1.2503222806
1.0900227523
0.938360518092
0.800210220127
0.677404045286
0.570052656512
0.477340849813
0.39800070742
0.330588907959
0.273645405288
0.225780354421
0.185717843551
0.152313910848
0.1245595773
0.101575484087
0.0826021610937
0.0669883604011
0.0541788959232
0.0437028119626
0.0351623198903
0.0282227072195
0.022603282973
0.0180693440076
0.0144251116986
0.0115076395573
0.00918183002215
0.00733577128462
0.00587432332739
0.00472679147044
0.00389761192158
0.00329235714225
0.00187374243725
0.000586482219609
-2579.00902678
2559.30413542
1.11620577591
1.55882180922
1.74188612828
1.74327585236
1.63966518542
1.48508505545
1.31267515836
1.14115662032
0.980317325718
0.834679160622
0.70575310419
0.593384958283
0.496548517976
0.41380913494
0.343591279669
0.284329214453
0.234547812471
0.192901748233
0.158190145624
0.129357088677
0.105484342064
0.0857801373034
0.0695663402688
0.0562653593961
0.0453875600237
0.0365195834318
0.0293137452549
0.023478555242
0.0187703262818
0.0149858082143
0.011955836651
0.00954014059127
0.00762248608695
0.00610385174448
0.00491002278805
0.00404487795265
0.00341253798726
0.00194676488964
0.00061403930439
-2576.94601886
2556.24751897
1.22483827329
1.6927473094
1.87132934812
1.85596876379
1.73348490277
1.56182905255
1.3751324292
1.19200254168
1.02180215787
0.868610819463
0.733564970715
0.616214211639
0.515303086193
0.429219738846
0.35625058342
0.294721101428
0.243069433439
0.199880349564
0.163896115659
0.134014230208
0.10927807515
0.0888641284087
0.0720679122609
0.0582899406398
0.0470223645652
0.0378366677386
0.0303725538678
0.024328043444
0.0194507296789
0.0155301142618
0.0123910015471
0.00988809939346
0.0079009740073
0.00632681963663
0.00508789178686
0.00418715766055
0.0035275510025
0.00201910620201
0.000644422902243
-2574.88641198
2553.1610009
1.3456422065
1.83832416826
2.0086435847
1.97306614607
1.82940245531
1.63931274252
1.4375874229
1.24247078352
1.06274291519
0.901948029702
0.760794287462
0.638504199534
0.533575403165
0.44420887314
0.368547511696
0.304805218381
0.251332158351
0.206642857254
0.169422889676
0.138523602408
0.112950551156
0.0918490536275
0.074488869418
0.0602491596341
0.0486043504838
0.0391112010073
0.031397179831
0.0251501422873
0.0201092380484
0.0160569540929
0.0128122588313
0.0102249986936
0.00817066916772
0.00654278684752
0.00526007360868
0.00432419557283
0.00363718883383
0.00209100957063
0.000678208940209
-2572.83020649
2550.04167527
1.48052120228
1.99687375937
2.15430651287
2.0946063407
1.92730767351
1.71739944528
1.49991790531
1.29246235868
1.10306198544
0.93463029396
0.787393642006
0.660217401004
0.551335460216
0.45875230243
0.380462330096
0.314565390572
0.259322664269
0.213178258215
0.174761342114
0.142877632789
0.116495482069
0.0947296912166
0.0768248773417
0.0621394215335
0.0501305397877
0.0403407198516
0.0323855889838
0.0259431755245
0.0207444735682
0.0165651989037
0.0132186880167
0.0105500931595
0.0084309753202
0.00675129097742
0.00542623196852
0.00445573622182
0.00374125461537
0.0021627430005
0.000716005653895
-2570.7773814
2546.88632528
1.63172760783
2.16985778938
2.30876631245
2.22056884664
2.02704668205
1.79592526622
1.56198568576
1.34186906194
1.14267637733
0.966593911401
0.813313662728
0.681315056735
0.568552433491
0.472825227659
0.391974891945
0.323985123647
0.267027366901
0.219475316258
0.179902151077
0.14706857282
0.119906420553
0.0975006748421
0.0790714706222
0.0639570133157
0.0515978485181
0.0415226665184
0.0333356637696
0.0267053937953
0.0213549948869
0.0170536652223
0.0136093221695
0.0108625986878
0.00868126480173
0.00695184648504
0.00558601902668
0.0045815246685
0.00383956073734
0.00223459614722
0.00075845032323
-2568.72789366
2543.69138089
1.80193650031
2.3588871882
2.4724198452
2.35086087251
2.12841692985
1.87469763242
1.62363641233
1.39057362907
1.18149792772
0.997772148446
0.838503141768
0.701757252339
0.585194738467
0.486402320884
0.403064659896
0.333047616596
0.27443242792
0.225522575777
0.184835799714
0.151088497889
0.123176759055
0.100156492225
0.0812240512816
0.0656981021657
0.0530030851775
0.0426543874339
0.0342452019082
0.0274349734562
0.0219392960855
0.0175211140189
0.0139831471331
0.0111616917148
0.00892087782829
0.00714394398593
0.00573907546765
0.00470130730697
0.00393192695888
0.00230687652817
0.000806207019134
-2566.68167756
2540.45287002
1.9943369839
2.56572808558
2.64558365653
2.48530211286
2.23116237292
1.95349413659
1.68469959206
1.43845003297
1.2194335868
1.02809545495
0.862909185925
0.721503020028
0.601230097421
0.499457769778
0.413710735229
0.341735781009
0.281523767602
0.231308369997
0.18955258157
0.154929310728
0.12629973197
0.102691486469
0.0832778895568
0.0673587359112
0.0543429509546
0.0437331332883
0.0351119164184
0.0281300165442
0.0224958066252
0.017966250628
0.0143391014445
0.0114465090955
0.00914912222024
0.00732704977373
0.00588503081053
0.00481483307075
0.00401817766756
0.00237990503798
0.000859966383722
-2564.63864431
2537.16636264
2.2127451291
2.79230286095
2.82845585309
2.6236078841
2.33496908106
2.03206178939
1.7449888738
1.48536392941
1.25638578493
1.05749172685
0.886477395991
0.740510459083
0.616625620358
0.511965332437
0.423891895438
0.35003226725
0.288287083364
0.236820834366
0.194042610425
0.158582748786
0.129268421258
0.105099860429
0.0852281273528
0.0689348457988
0.0556140419827
0.0447560608969
0.0359334371494
0.0287885520615
0.0230228924097
0.0183877256333
0.0146760770304
0.0117161486326
0.00936527361343
0.00750060557921
0.00602350397324
0.00492185521015
0.00409813805732
0.00245401065752
0.000920447953943
-2562.59868187
2533.82690648
2.46174406631
3.040683359
3.02106644041
2.76537097329
2.43946162282
2.11011678614
1.80430262933
1.53117326356
1.29225288311
1.0858866156
0.909152074576
0.758736875345
0.631347899779
0.52389840297
0.433586640635
0.357919498101
0.294707874757
0.242047925556
0.198295835079
0.16204039596
0.132075765927
0.107375684478
0.087069784679
0.0704222518762
0.0568128538667
0.0457202370282
0.0367073140236
0.0294085387126
0.0235188580965
0.0187841367763
0.0149929207893
0.0119696703391
0.00956857622254
0.00766402858466
0.00615410408717
0.0050221338586
0.00417162900372
0.0025295241085
0.000988407595195
-2560.56165501
2530.42895344
2.7468582242
3.31307211165
3.22321314624
2.91004287962
2.54420067616
2.18734489177
1.8624248658
1.57572904544
1.32692970788
1.11320388376
0.930876462015
0.776138939633
0.645363119437
0.535230088192
0.442773249202
0.365379710303
0.300771475349
0.246977446535
0.2023020595
0.165293699076
0.134714575695
0.109512907958
0.0887977693325
0.0718166712144
0.0579357886938
0.0466226443768
0.0374310221238
0.0299878692289
0.0239819507506
0.0191540320362
0.0152884371323
0.0122060984917
0.00975824422074
0.00781671165637
0.00627643152274
0.00511543967328
0.00423846041251
0.0026067699924
0.00106465063831
-2558.52740564
2526.96627539
3.07477059203
3.6117656625
3.43437909773
3.05691561163
2.64868240944
2.2634025348
1.9191264968
1.61887629954
1.36030816868
1.13936580519
0.951592999419
0.792672864663
0.658637177061
0.545933295591
0.451429842941
0.372395004348
0.306463091825
0.251597078049
0.206050968642
0.168333989393
0.137177549111
0.111505374576
0.0904068900333
0.0731137291618
0.0589791646725
0.0474601898228
0.0381019687601
0.030524376389
0.0244103649454
0.0194959139087
0.0155613915305
0.0124244245502
0.00993346379467
0.00795802380694
0.00639007905211
0.00520155892586
0.00429842285091
0.00268605664605
0.00115005444274
-2556.49575342
2523.43186836
3.45359430226
3.9390916627
3.65362796287
3.20510590242
2.75234026845
2.33791867259
1.97416699279
1.66045518955
1.39227795396
1.16429360719
0.971243617372
0.808294599716
0.671135820699
0.555980832507
0.459534461834
0.378947402648
0.311767850548
0.255894416693
0.209532160151
0.171152509345
0.139457296315
0.113346841889
0.0918918731704
0.074308973747
0.0599392285313
0.0482297150882
0.038717502592
0.0310158407964
0.0248022493667
0.0198082449591
0.0158105151354
0.0126236109779
0.0100933959305
0.00808731080645
0.00649463298409
0.00528030050616
0.00435127741132
0.00276766244487
0.00124560182956
-2554.46649666
2519.81784399
3.89321292475
4.29730803718
3.87947131527
3.35354470325
2.85454986958
2.4104974399
2.02729642362
1.70030231471
1.42272729925
1.18790795089
0.989770048184
0.822960041864
0.682824798093
0.565345516238
0.467065148279
0.385018916122
0.316670851569
0.25985701967
0.212735182033
0.173740444589
0.141546366508
0.115031004957
0.093247383213
0.075397893306
0.0608121707149
0.0489280098026
0.0392749248414
0.0314600004605
0.0251557149388
0.0200894546694
0.0160345104731
0.0128025959848
0.0102371800017
0.00820389590963
0.00658967400409
0.00535150541556
0.00439674393504
0.00285181665035
0.00135242960867
-2552.43941355
2516.11530763
4.40570783115
4.68844784851
4.10970206553
3.50097622492
2.95463770503
2.48072151539
2.07825789893
1.73825216912
1.4515438176
1.21012944518
1.00711415899
0.836625262183
0.693670018158
0.574000294527
0.474000040486
0.390591618931
0.321157229984
0.263472456129
0.215649576197
0.176088961309
0.143437280097
0.116551524136
0.0944680467672
0.0763759372904
0.0615941433654
0.0495518270049
0.0397715025797
0.0318545621505
0.0254688444831
0.0203379475631
0.0162320581958
0.0129602992064
0.0103639382018
0.0083070806069
0.00667477735616
0.00541505942871
0.00443448806896
0.00293867194467
0.00147189609861
-2550.4142637
2512.31422285
5.00589607488
5.11408701547
4.34118687709
3.64597276473
3.05189425977
2.54815602896
2.12679040805
1.77413874955
1.4786153795
1.23087918819
1.02321830241
0.849246744944
0.70363772332
0.581918375567
0.480317474407
0.39564773092
0.325212224234
0.266728364766
0.218264927653
0.17818924856
0.14512256533
0.117902056836
0.095548480131
0.0772385401544
0.0622812809723
0.0500979009372
0.0402044840374
0.0321972144681
0.0257397038219
0.0205521125682
0.0164018248647
0.0130956282769
0.0104727809091
0.00839614533517
0.00674951173958
0.00547090970227
0.00446410825235
0.00302826454842
0.00160567230315
-2548.39078994
2508.40326321
5.71200875881
5.57500309167
4.56960965751
3.78697428327
3.14559183976
2.61235268378
2.17263206539
1.80779729068
1.50383102604
1.25007932989
1.03802568085
0.860781637311
0.71269467108
0.589073366389
0.485996093305
0.400169707069
0.328821250797
0.269612517216
0.220570918902
0.180032565276
0.146594799074
0.119076292976
0.096483320096
0.077981148078
0.0628697235129
0.0505629670152
0.0405711157332
0.0324856425042
0.0259663542405
0.0207303335212
0.0165424716635
0.013207486249
0.010562813044
0.00847035004802
0.00681343613857
0.00551908615637
0.00448512456225
0.00312045618432
0.00175586275093
-2546.36872047
2504.36965383
6.54654823756
6.070680932
4.78915766869
3.92236544396
3.23500678843
2.67285357844
2.21552378535
1.83906609922
1.52708189509
1.26765364851
1.05148072012
0.871188006681
0.720808322862
0.595439418143
0.49101496381
0.40414033294
0.331969984388
0.272112886455
0.222557388876
0.181610291363
0.147846651253
0.120067993648
0.0972672575909
0.0785992481939
0.0633556417531
0.0509437836572
0.0408686612496
0.0327175438861
0.026146866128
0.02087100067
0.0166526639014
0.0132947797335
0.0106331415369
0.00852893464035
0.00686609339915
0.00555972841392
0.00449697279644
0.0032148499523
0.00192516267749
-2544.34777124
2500.1990075
7.53737324762
6.59860396696
4.99214183495
4.05060794456
3.31944463333
2.72919399808
2.25521345306
1.86778844792
1.54826213677
1.28352813323
1.06352944719
0.880425102313
0.72794703779
0.600991376434
0.495353696897
0.407542824837
0.334644442537
0.274217719243
0.224214395527
0.182913982074
0.148870932197
0.120871032397
0.0978950736224
0.0790883997994
0.0637352643
0.0512371556372
0.0410944212914
0.0328906459155
0.0262793335644
0.0209725229708
0.0167310811389
0.0133564275965
0.0106828839897
0.00857111922128
0.0069069990334
0.00559311890747
0.00449900911614
0.00331066954676
0.00211705967782
-2542.32764852
2495.87516448
8.71907484504
7.15324616944
5.16854392599
4.1704529084
3.39826476792
2.78090322301
2.29146073505
1.8938144755
1.56726979024
1.29763156626
1.07411986692
0.888453617469
0.734080268662
0.605704934505
0.498992571942
0.410360933014
0.336831073107
0.27591561127
0.225532280898
0.183935424604
0.149660641994
0.121479438242
0.0983616767406
0.0794442669248
0.0640049057976
0.0514399584152
0.0412457545867
0.0330027234381
0.0263618894968
0.0210333409028
0.0167764276587
0.0133913699482
0.0107111786975
0.00859610437543
0.00693562317878
0.00561972230146
0.00449053352229
0.00340658789521
0.00233608848602
-2540.30805175
)
;

boundaryField
{
    inout
    {
        type            empty;
    }
    top
    {
        type            calculated;
        value           nonuniform List<scalar> 
41
(
2495.87516448
8.71907484504
7.15324616944
5.16854392599
4.1704529084
3.39826476792
2.78090322301
2.29146073505
1.8938144755
1.56726979024
1.29763156626
1.07411986692
0.888453617469
0.734080268662
0.605704934505
0.498992571942
0.410360933014
0.336831073107
0.27591561127
0.225532280898
0.183935424604
0.149660641994
0.121479438242
0.0983616767406
0.0794442669248
0.0640049057976
0.0514399584152
0.0412457545867
0.0330027234381
0.0263618894968
0.0210333409028
0.0167764276587
0.0133913699482
0.0107111786975
0.00859610437543
0.00693562317878
0.00561972230146
0.00449053352229
0.00340658789521
0.00233608848602
-2540.30805175
)
;
    }
    bottom
    {
        type            calculated;
        value           nonuniform List<scalar> 
41
(
2622.59801043
0.0151219280231
0.0229313958377
0.0281022737187
0.0306574501195
0.0310196278019
0.0297971297329
0.0275779428021
0.02483760018
0.0219189570446
0.0190466909418
0.0163541906377
0.0139104723586
0.0117421475301
0.00984958000561
0.00821801864315
0.00682490861382
0.00564449916172
0.00465062505565
0.00381829459302
0.00312451878691
0.00254867080188
0.00207256368033
0.00168036639393
0.00135843361292
0.00109509561409
0.000880436173191
0.00070607456664
0.000564960432622
0.000451185869685
0.000359816988002
0.000286746773342
0.000228569847032
0.000182475299955
0.000146191377392
0.000118137017675
9.72414883286e-05
7.87593583702e-05
4.86041150019e-05
2.27429110244e-05
-2622.94608579
)
;
    }
    frontback
    {
        type            empty;
    }
}


// ************************************************************************* //
