/*--------------------------------*- C++ -*----------------------------------*\
| =========                 |                                                 |
| \\      /  F ield         | OpenFOAM: The Open Source CFD Toolbox           |
|  \\    /   O peration     | Version:  2112                                  |
|   \\  /    A nd           | Website:  www.openfoam.com                      |
|    \\/     M anipulation  |                                                 |
\*---------------------------------------------------------------------------*/
FoamFile
{
    version     2.0;
    format      ascii;
    arch        "LSB;label=32;scalar=64";
    class       volVectorField;
    location    "3";
    object      flux;
}
// * * * * * * * * * * * * * * * * * * * * * * * * * * * * * * * * * * * * * //

dimensions      [0 1 -1 1 0 0 0];

internalField   nonuniform List<vector> 
512
(
(0.0188377 -23.6232 0)
(0.0539627 -23.4712 0)
(0.0823756 -23.1881 0)
(0.102075 -22.8079 0)
(0.113143 -22.3672 0)
(0.116948 -21.8991 0)
(0.115325 -21.4289 0)
(0.110017 -20.9746 0)
(0.10244 -20.5476 0)
(0.093628 -20.1545 0)
(0.084274 -19.7983 0)
(0.0748098 -19.4802 0)
(0.0654778 -19.1999 0)
(0.0563905 -18.9565 0)
(0.0475754 -18.7489 0)
(0.0390043 -18.576 0)
(0.0306143 -18.437 0)
(0.0223216 -18.3312 0)
(0.0140332 -18.2584 0)
(0.00565889 -18.2188 0)
(-0.00287151 -18.213 0)
(-0.0115848 -18.2417 0)
(-0.0204296 -18.3056 0)
(-0.0292275 -18.4052 0)
(-0.0376121 -18.5397 0)
(-0.0449611 -18.7066 0)
(-0.0503457 -18.9003 0)
(-0.0525468 -19.1109 0)
(-0.0502149 -19.323 0)
(-0.0422588 -19.5155 0)
(-0.0284585 -19.664 0)
(-0.0100732 -19.7454 0)
(0.0571521 -23.6611 0)
(0.163568 -23.5039 0)
(0.249307 -23.2123 0)
(0.308385 -22.8228 0)
(0.341247 -22.3739 0)
(0.352205 -21.8994 0)
(0.346901 -21.4248 0)
(0.330623 -20.9676 0)
(0.307635 -20.5389 0)
(0.281024 -20.145 0)
(0.252854 -19.7886 0)
(0.224401 -19.4705 0)
(0.196376 -19.1904 0)
(0.169108 -18.9473 0)
(0.142669 -18.7399 0)
(0.116971 -18.5672 0)
(0.0918221 -18.4283 0)
(0.066967 -18.3225 0)
(0.0421237 -18.2497 0)
(0.0170182 -18.21 0)
(-0.00856661 -18.204 0)
(-0.0347198 -18.2325 0)
(-0.0612988 -18.2963 0)
(-0.0877846 -18.396 0)
(-0.113094 -18.5311 0)
(-0.135374 -18.6994 0)
(-0.151833 -18.8957 0)
(-0.158774 -19.1102 0)
(-0.152052 -19.3274 0)
(-0.128239 -19.5261 0)
(-0.086523 -19.6803 0)
(-0.0306604 -19.7654 0)
(0.0974428 -23.7381 0)
(0.278346 -23.5699 0)
(0.422912 -23.2608 0)
(0.521258 -22.8524 0)
(0.574835 -22.3869 0)
(0.591541 -21.8996 0)
(0.58123 -21.416 0)
(0.552919 -20.9532 0)
(0.513748 -20.5214 0)
(0.468823 -20.1258 0)
(0.421517 -19.7689 0)
(0.373897 -19.451 0)
(0.327098 -19.1713 0)
(0.281629 -18.9287 0)
(0.237589 -18.7219 0)
(0.194812 -18.5496 0)
(0.152966 -18.411 0)
(0.111619 -18.3053 0)
(0.0702882 -18.2323 0)
(0.0285048 -18.1924 0)
(-0.0141131 -18.186 0)
(-0.0577427 -18.214 0)
(-0.102187 -18.2776 0)
(-0.146632 -18.3776 0)
(-0.189332 -18.5139 0)
(-0.227241 -18.6849 0)
(-0.255701 -18.8861 0)
(-0.268419 -19.1082 0)
(-0.258164 -19.3361 0)
(-0.218697 -19.5473 0)
(-0.148127 -19.7135 0)
(-0.0526133 -19.8062 0)
(0.141237 -23.8571 0)
(0.402215 -23.6711 0)
(0.608082 -23.334 0)
(0.745337 -22.8961 0)
(0.817655 -22.4052 0)
(0.837651 -21.8986 0)
(0.820077 -21.4019 0)
(0.777952 -20.9309 0)
(0.721323 -20.4945 0)
(0.657238 -20.0968 0)
(0.590281 -19.7393 0)
(0.523209 -19.4216 0)
(0.457508 -19.1427 0)
(0.393814 -18.9009 0)
(0.332212 -18.6949 0)
(0.272438 -18.5233 0)
(0.214003 -18.385 0)
(0.156281 -18.2795 0)
(0.0985799 -18.2064 0)
(0.0402124 -18.1659 0)
(-0.0193958 -18.1589 0)
(-0.0805529 -18.1863 0)
(-0.143067 -18.2494 0)
(-0.205911 -18.3496 0)
(-0.266765 -18.4875 0)
(-0.32147 -18.6624 0)
(-0.363506 -18.8708 0)
(-0.383812 -19.1045 0)
(-0.371585 -19.3486 0)
(-0.316937 -19.5794 0)
(-0.215967 -19.7647 0)
(-0.0769931 -19.8698 0)
(0.190418 -24.0224 0)
(0.539869 -23.8099 0)
(0.81042 -23.4323 0)
(0.98567 -22.9529 0)
(1.07357 -22.4272 0)
(1.09318 -21.895 0)
(1.06509 -21.3812 0)
(1.00664 -20.8997 0)
(0.930792 -20.4576 0)
(0.846401 -20.0575 0)
(0.759103 -19.6994 0)
(0.672208 -19.3823 0)
(0.587445 -19.1044 0)
(0.505502 -18.8639 0)
(0.426405 -18.659 0)
(0.349754 -18.4883 0)
(0.274884 -18.3506 0)
(0.200961 -18.2452 0)
(0.127057 -18.1718 0)
(0.0522475 -18.1308 0)
(-0.0242763 -18.1228 0)
(-0.103011 -18.1492 0)
(-0.183855 -18.2115 0)
(-0.26568 -18.3118 0)
(-0.345731 -18.4515 0)
(-0.418867 -18.6311 0)
(-0.476747 -18.8487 0)
(-0.507344 -19.0977 0)
(-0.49562 -19.364 0)
(-0.426762 -19.6224 0)
(-0.293305 -19.8356 0)
(-0.105122 -19.9591 0)
(0.247462 -24.2407 0)
(0.697258 -23.9899 0)
(1.0366 -23.5559 0)
(1.24787 -23.0211 0)
(1.34659 -22.4507 0)
(1.36068 -21.8866 0)
(1.31772 -21.3521 0)
(1.23972 -20.8585 0)
(1.14244 -20.4101 0)
(1.03633 -20.0074 0)
(0.927862 -19.6491 0)
(0.820711 -19.3329 0)
(0.716713 -19.0566 0)
(0.616516 -18.8177 0)
(0.520019 -18.6143 0)
(0.426657 -18.4447 0)
(0.335559 -18.3077 0)
(0.245662 -18.2025 0)
(0.155787 -18.1288 0)
(0.064733 -18.087 0)
(-0.0285848 -18.0777 0)
(-0.124926 -18.1026 0)
(-0.224386 -18.1638 0)
(-0.325884 -18.2637 0)
(-0.426422 -18.4051 0)
(-0.520078 -18.5899 0)
(-0.596813 -18.8184 0)
(-0.641464 -19.0862 0)
(-0.633948 -19.3809 0)
(-0.552742 -19.6764 0)
(-0.384316 -19.9285 0)
(-0.138758 -20.079 0)
(0.315812 -24.5216 0)
(0.882273 -24.2155 0)
(1.29482 -23.7045 0)
(1.53824 -23.098 0)
(1.6408 -22.4725 0)
(1.64248 -21.8707 0)
(1.57915 -21.3127 0)
(1.47766 -20.8058 0)
(1.35634 -20.3509 0)
(1.2269 -19.946 0)
(1.09634 -19.5879 0)
(0.968473 -19.2733 0)
(0.845078 -18.999 0)
(0.726648 -18.7622 0)
(0.612893 -18.5607 0)
(0.503033 -18.3926 0)
(0.395971 -18.2565 0)
(0.290392 -18.1516 0)
(0.184841 -18.0775 0)
(0.0778117 -18.0346 0)
(-0.0321141 -18.0237 0)
(-0.146041 -18.0466 0)
(-0.264391 -18.1059 0)
(-0.386317 -18.2048 0)
(-0.508828 -18.3473 0)
(-0.625519 -18.5373 0)
(-0.724905 -18.7777 0)
(-0.788633 -19.0676 0)
(-0.790707 -19.3973 0)
(-0.70053 -19.7407 0)
(-0.494598 -20.0463 0)
(-0.180372 -20.236 0)
(0.400482 -24.8788 0)
(1.10578 -24.4923 0)
(1.59534 -23.8769 0)
(1.86387 -23.1796 0)
(1.96026 -22.4882 0)
(1.94059 -21.8436 0)
(1.85018 -21.2602 0)
(1.72061 -20.7398 0)
(1.57232 -20.2789 0)
(1.41781 -19.8726 0)
(1.2642 -19.5156 0)
(1.11517 -19.2033 0)
(0.972255 -18.9317 0)
(0.835663 -18.6977 0)
(0.704842 -18.4984 0)
(0.578757 -18.3321 0)
(0.456055 -18.1971 0)
(0.335155 -18.0926 0)
(0.214301 -18.018 0)
(0.0916468 -17.9737 0)
(-0.0346151 -17.9608 0)
(-0.166028 -17.9811 0)
(-0.303484 -18.0377 0)
(-0.446592 -18.1346 0)
(-0.592683 -18.2772 0)
(-0.735288 -18.4718 0)
(-0.861917 -18.7243 0)
(-0.951223 -19.0385 0)
(-0.970537 -19.4097 0)
(-0.877255 -19.8141 0)
(-0.631938 -20.1926 0)
(-0.233607 -20.4399 0)
(0.509106 -25.3327 0)
(1.38324 -24.8261 0)
(1.95115 -24.0697 0)
(2.23259 -23.2595 0)
(2.30877 -22.492 0)
(2.25646 -21.8011 0)
(2.13107 -21.1919 0)
(1.96831 -20.6587 0)
(1.78994 -20.1931 0)
(1.60856 -19.7866 0)
(1.43098 -19.4319 0)
(1.26041 -19.1229 0)
(1.09791 -18.8548 0)
(0.943298 -18.624 0)
(0.795666 -18.4276 0)
(0.65369 -18.2634 0)
(0.515741 -18.1298 0)
(0.379954 -18.0256 0)
(0.244253 -17.9505 0)
(0.106422 -17.9047 0)
(-0.0357955 -17.8891 0)
(-0.184477 -17.9061 0)
(-0.341144 -17.9589 0)
(-0.506107 -18.0525 0)
(-0.677402 -18.1937 0)
(-0.849051 -18.3912 0)
(-1.00827 -18.655 0)
(-1.13132 -18.9947 0)
(-1.17852 -19.4133 0)
(-1.09198 -19.8935 0)
(-0.807515 -20.3712 0)
(-0.304056 -20.7053 0)
(0.653791 -25.9131 0)
(1.73728 -25.2222 0)
(2.37861 -24.2758 0)
(2.65269 -23.3287 0)
(2.68947 -22.4766 0)
(2.59067 -21.738 0)
(2.42136 -21.1043 0)
(2.21998 -20.5606 0)
(2.00838 -20.0923 0)
(1.79844 -19.6875 0)
(1.59609 -19.3364 0)
(1.40371 -19.0318 0)
(1.22168 -18.7682 0)
(1.04926 -18.5414 0)
(0.885144 -18.3484 0)
(0.72768 -18.1867 0)
(0.574946 -18.0546 0)
(0.424785 -17.951 0)
(0.274787 -17.8753 0)
(0.122337 -17.8276 0)
(-0.0353224 -17.8089 0)
(-0.200899 -17.8216 0)
(-0.376706 -17.8694 0)
(-0.564024 -17.9581 0)
(-0.762024 -18.0957 0)
(-0.965921 -18.2936 0)
(-1.16366 -18.5663 0)
(-1.33037 -18.9307 0)
(-1.41995 -19.4011 0)
(-1.35619 -19.9731 0)
(-1.03783 -20.5852 0)
(-0.40067 -21.0537 0)
(0.854548 -26.6661 0)
(2.20189 -25.6821 0)
(2.89791 -24.4819 0)
(3.13219 -23.374 0)
(3.10412 -22.4326 0)
(2.94259 -21.6485 0)
(2.71976 -20.9941 0)
(2.4743 -20.4434 0)
(2.2265 -19.9754 0)
(1.98652 -19.5746 0)
(1.75879 -19.2291 0)
(1.5445 -18.9303 0)
(1.34312 -18.6722 0)
(1.15322 -18.4501 0)
(0.973035 -18.261 0)
(0.800559 -18.1022 0)
(0.633575 -17.972 0)
(0.469637 -17.8691 0)
(0.30599 -17.7927 0)
(0.139602 -17.7428 0)
(-0.0328281 -17.7205 0)
(-0.214728 -17.728 0)
(-0.409364 -17.7693 0)
(-0.619252 -17.8509 0)
(-0.845163 -17.9822 0)
(-1.08433 -18.1768 0)
(-1.32681 -18.4542 0)
(-1.54871 -18.8397 0)
(-1.69972 -19.363 0)
(-1.68404 -20.0422 0)
(-1.34784 -20.8346 0)
(-0.538336 -21.5189 0)
(1.14579 -27.6651 0)
(2.82937 -26.196 0)
(3.53269 -24.665 0)
(3.67736 -23.3775 0)
(3.55221 -22.3492 0)
(3.30992 -21.5264 0)
(3.02392 -20.8578 0)
(2.7293 -20.3052 0)
(2.44276 -19.8416 0)
(2.17164 -19.4477 0)
(1.91823 -19.1098 0)
(1.68217 -18.8184 0)
(1.46178 -18.5668 0)
(1.25484 -18.3503 0)
(1.05908 -18.1657 0)
(0.872144 -18.0103 0)
(0.691516 -17.8823 0)
(0.514483 -17.7802 0)
(0.337938 -17.703 0)
(0.158432 -17.6508 0)
(-0.0279207 -17.6242 0)
(-0.225336 -17.6255 0)
(-0.43818 -17.6588 0)
(-0.670454 -17.731 0)
(-0.924978 -17.8524 0)
(-1.2019 -18.039 0)
(-1.49511 -18.3146 0)
(-1.78477 -18.714 0)
(-2.02116 -19.2855 0)
(-2.09202 -20.0825 0)
(-1.77619 -21.1107 0)
(-0.742804 -22.1547 0)
(1.58909 -29.0313 0)
(3.70196 -26.7254 0)
(4.30718 -24.787 0)
(4.29007 -23.3161 0)
(4.02967 -22.2143 0)
(3.6883 -21.3656 0)
(3.33034 -20.6923 0)
(2.98239 -20.1447 0)
(2.65527 -19.6901 0)
(2.35243 -19.3065 0)
(2.07343 -18.9786 0)
(1.81601 -18.6962 0)
(1.57718 -18.4523 0)
(1.35377 -18.2421 0)
(1.14302 -18.0627 0)
(0.942238 -17.9112 0)
(0.748638 -17.7857 0)
(0.559281 -17.6846 0)
(0.370693 -17.6067 0)
(0.179031 -17.5519 0)
(-0.0201985 -17.5204 0)
(-0.232047 -17.5146 0)
(-0.462108 -17.5381 0)
(-0.716074 -17.5983 0)
(-0.999181 -17.706 0)
(-1.3154 -17.8785 0)
(-1.6643 -18.1436 0)
(-2.03415 -18.5448 0)
(-2.38399 -19.1511 0)
(-2.59668 -20.0647 0)
(-2.38393 -21.3825 0)
(-1.06033 -23.0511 0)
(2.29874 -30.9738 0)
(4.95152 -27.1628 0)
(5.23732 -24.792 0)
(4.9637 -23.1624 0)
(4.52748 -22.016 0)
(4.07093 -21.1607 0)
(3.63437 -20.4952 0)
(3.2304 -19.9606 0)
(2.86183 -19.5206 0)
(2.52739 -19.1511 0)
(2.22337 -18.8357 0)
(1.94533 -18.5641 0)
(1.68884 -18.329 0)
(1.44964 -18.1259 0)
(1.22457 -17.9523 0)
(1.01063 -17.805 0)
(0.804789 -17.6826 0)
(0.603967 -17.5828 0)
(0.404289 -17.5042 0)
(0.201585 -17.4467 0)
(-0.00926759 -17.4098 0)
(-0.23416 -17.3958 0)
(-0.480027 -17.4077 0)
(-0.754387 -17.4532 0)
(-1.06509 -17.5427 0)
(-1.42073 -17.6943 0)
(-1.82825 -17.938 0)
(-2.28852 -18.3238 0)
(-2.78112 -18.9394 0)
(-3.20772 -19.9453 0)
(-3.26937 -21.566 0)
(-1.57709 -24.364 0)
(3.49461 -33.8691 0)
(6.79289 -27.2402 0)
(6.3074 -24.6116 0)
(5.67808 -22.8877 0)
(5.03048 -21.7448 0)
(4.44869 -20.9083 0)
(3.9304 -20.2652 0)
(3.46969 -19.7527 0)
(3.06001 -19.3332 0)
(2.69487 -18.982 0)
(2.36693 -18.6816 0)
(2.06938 -18.4226 0)
(1.7963 -18.1973 0)
(1.54209 -18.0019 0)
(1.30344 -17.835 0)
(1.07711 -17.6924 0)
(0.859785 -17.5734 0)
(0.648459 -17.4752 0)
(0.438723 -17.396 0)
(0.226249 -17.3359 0)
(0.00523409 -17.293 0)
(-0.230981 -17.2702 0)
(-0.490785 -17.2683 0)
(-0.783588 -17.2966 0)
(-1.11975 -17.3634 0)
(-1.51308 -17.4866 0)
(-1.97902 -17.6965 0)
(-2.53482 -18.0448 0)
(-3.19476 -18.6296 0)
(-3.91001 -19.6717 0)
(-4.59327 -21.4548 0)
(-2.45929 -26.3759 0)
(5.61323 -38.4217 0)
(9.58027 -26.3174 0)
(7.41354 -24.2051 0)
(6.39714 -22.4678 0)
(5.51717 -21.3968 0)
(4.81072 -20.6075 0)
(4.21219 -20.0023 0)
(3.69638 -19.5214 0)
(3.2472 -19.1285 0)
(2.8532 -18.7999 0)
(2.50305 -18.5168 0)
(2.18745 -18.2724 0)
(1.89918 -18.0579 0)
(1.63078 -17.8705 0)
(1.37936 -17.7114 0)
(1.14146 -17.5734 0)
(0.913386 -17.4586 0)
(0.69265 -17.3624 0)
(0.473927 -17.2827 0)
(0.253122 -17.2204 0)
(0.0235987 -17.1707 0)
(-0.221853 -17.1388 0)
(-0.493255 -17.1211 0)
(-0.801921 -17.13 0)
(-1.16011 -17.1696 0)
(-1.58727 -17.2569 0)
(-2.10733 -17.4199 0)
(-2.75508 -17.7063 0)
(-3.59459 -18.2051 0)
(-4.62032 -19.2125 0)
(-6.62146 -20.5586 0)
(-4.03765 -29.6178 0)
)
;

boundaryField
{
    left
    {
        type            calculated;
        value           nonuniform List<vector> 
16
(
(0 -23.6232 0)
(0 -23.6611 0)
(0 -23.7381 0)
(0 -23.8571 0)
(0 -24.0224 0)
(0 -24.2407 0)
(0 -24.5216 0)
(0 -24.8788 0)
(0 -25.3327 0)
(0 -25.9131 0)
(0 -26.6661 0)
(0 -27.6651 0)
(0 -29.0313 0)
(0 -30.9738 0)
(0 -33.8691 0)
(0 -38.4217 0)
)
;
    }
    right
    {
        type            calculated;
        value           nonuniform List<vector> 
16
(
(0 -19.7454 0)
(0 -19.7654 0)
(0 -19.8062 0)
(0 -19.8698 0)
(0 -19.9591 0)
(0 -20.079 0)
(0 -20.236 0)
(0 -20.4399 0)
(0 -20.7053 0)
(0 -21.0537 0)
(0 -21.5189 0)
(0 -22.1547 0)
(0 -23.0511 0)
(0 -24.364 0)
(0 -26.3759 0)
(0 -29.6178 0)
)
;
    }
    interface
    {
        type            calculated;
        value           nonuniform List<vector> 
32
(
(5.61323 -41.2276 0)
(9.58027 -25.4935 0)
(7.41354 -23.944 0)
(6.39714 -22.2188 0)
(5.51717 -21.2036 0)
(4.81072 -20.445 0)
(4.21219 -19.8628 0)
(3.69638 -19.3999 0)
(3.2472 -19.022 0)
(2.8532 -18.7057 0)
(2.50305 -18.4319 0)
(2.18745 -18.1952 0)
(1.89918 -17.9863 0)
(1.63078 -17.803 0)
(1.37936 -17.648 0)
(1.14146 -17.5123 0)
(0.913386 -17.3999 0)
(0.69265 -17.3048 0)
(0.473927 -17.2247 0)
(0.253122 -17.1615 0)
(0.0235987 -17.1082 0)
(-0.221853 -17.0718 0)
(-0.493255 -17.0455 0)
(-0.801921 -17.0443 0)
(-1.16011 -17.0692 0)
(-1.58727 -17.1367 0)
(-2.10733 -17.273 0)
(-2.75508 -17.5222 0)
(-3.59459 -17.9624 0)
(-4.62032 -18.9354 0)
(-6.62146 -19.8282 0)
(-4.03765 -31.6333 0)
)
;
    }
    bottom
    {
        type            calculated;
        value           nonuniform List<vector> 
32
(
(0.0188377 -23.6138 0)
(0.0539627 -23.4631 0)
(0.0823756 -23.1821 0)
(0.102075 -22.8041 0)
(0.113143 -22.3655 0)
(0.116948 -21.899 0)
(0.115325 -21.4299 0)
(0.110017 -20.9764 0)
(0.10244 -20.5498 0)
(0.093628 -20.1568 0)
(0.084274 -19.8008 0)
(0.0748098 -19.4827 0)
(0.0654778 -19.2023 0)
(0.0563905 -18.9588 0)
(0.0475754 -18.7512 0)
(0.0390043 -18.5782 0)
(0.0306143 -18.4391 0)
(0.0223216 -18.3333 0)
(0.0140332 -18.2606 0)
(0.00565889 -18.2211 0)
(-0.00287151 -18.2153 0)
(-0.0115848 -18.244 0)
(-0.0204296 -18.308 0)
(-0.0292275 -18.4075 0)
(-0.0376121 -18.5418 0)
(-0.0449611 -18.7084 0)
(-0.0503457 -18.9015 0)
(-0.0525468 -19.1111 0)
(-0.0502149 -19.3219 0)
(-0.0422588 -19.5128 0)
(-0.0284585 -19.6599 0)
(-0.0100732 -19.7405 0)
)
;
    }
    defaultFaces
    {
        type            empty;
    }
}


// ************************************************************************* //
