/*--------------------------------*- C++ -*----------------------------------*\
| =========                 |                                                 |
| \\      /  F ield         | OpenFOAM: The Open Source CFD Toolbox           |
|  \\    /   O peration     | Version:  2112                                  |
|   \\  /    A nd           | Website:  www.openfoam.com                      |
|    \\/     M anipulation  |                                                 |
\*---------------------------------------------------------------------------*/
FoamFile
{
    version     2.0;
    format      ascii;
    arch        "LSB;label=32;scalar=64";
    class       volScalarField;
    location    "3";
    object      gradTy;
}
// * * * * * * * * * * * * * * * * * * * * * * * * * * * * * * * * * * * * * //

dimensions      [0 -1 0 1 0 0 0];

internalField   nonuniform List<scalar> 
512
(
-23.6232
-23.4712
-23.1881
-22.8079
-22.3672
-21.8991
-21.4289
-20.9746
-20.5476
-20.1545
-19.7983
-19.4802
-19.1999
-18.9565
-18.7489
-18.576
-18.437
-18.3312
-18.2584
-18.2188
-18.213
-18.2417
-18.3056
-18.4052
-18.5397
-18.7066
-18.9003
-19.1109
-19.323
-19.5155
-19.664
-19.7454
-23.6611
-23.5039
-23.2123
-22.8228
-22.3739
-21.8994
-21.4248
-20.9676
-20.5389
-20.145
-19.7886
-19.4705
-19.1904
-18.9473
-18.7399
-18.5672
-18.4283
-18.3225
-18.2497
-18.21
-18.204
-18.2325
-18.2963
-18.396
-18.5311
-18.6994
-18.8957
-19.1102
-19.3274
-19.5261
-19.6803
-19.7654
-23.7381
-23.5699
-23.2608
-22.8524
-22.3869
-21.8996
-21.416
-20.9532
-20.5214
-20.1258
-19.7689
-19.451
-19.1713
-18.9287
-18.7219
-18.5496
-18.411
-18.3053
-18.2323
-18.1924
-18.186
-18.214
-18.2776
-18.3776
-18.5139
-18.6849
-18.8861
-19.1082
-19.3361
-19.5473
-19.7135
-19.8062
-23.8571
-23.6711
-23.334
-22.8961
-22.4052
-21.8986
-21.4019
-20.9309
-20.4945
-20.0968
-19.7393
-19.4216
-19.1427
-18.9009
-18.6949
-18.5233
-18.385
-18.2795
-18.2064
-18.1659
-18.1589
-18.1863
-18.2494
-18.3496
-18.4875
-18.6624
-18.8708
-19.1045
-19.3486
-19.5794
-19.7647
-19.8698
-24.0224
-23.8099
-23.4323
-22.9529
-22.4272
-21.895
-21.3812
-20.8997
-20.4576
-20.0575
-19.6994
-19.3823
-19.1044
-18.8639
-18.659
-18.4883
-18.3506
-18.2452
-18.1718
-18.1308
-18.1228
-18.1492
-18.2115
-18.3118
-18.4515
-18.6311
-18.8487
-19.0977
-19.364
-19.6224
-19.8356
-19.9591
-24.2407
-23.9899
-23.5559
-23.0211
-22.4507
-21.8866
-21.3521
-20.8585
-20.4101
-20.0074
-19.6491
-19.3329
-19.0566
-18.8177
-18.6143
-18.4447
-18.3077
-18.2025
-18.1288
-18.087
-18.0777
-18.1026
-18.1638
-18.2637
-18.4051
-18.5899
-18.8184
-19.0862
-19.3809
-19.6764
-19.9285
-20.079
-24.5216
-24.2155
-23.7045
-23.098
-22.4725
-21.8707
-21.3127
-20.8058
-20.3509
-19.946
-19.5879
-19.2733
-18.999
-18.7622
-18.5607
-18.3926
-18.2565
-18.1516
-18.0775
-18.0346
-18.0237
-18.0466
-18.1059
-18.2048
-18.3473
-18.5373
-18.7777
-19.0676
-19.3973
-19.7407
-20.0463
-20.236
-24.8788
-24.4923
-23.8769
-23.1796
-22.4882
-21.8436
-21.2602
-20.7398
-20.2789
-19.8726
-19.5156
-19.2033
-18.9317
-18.6977
-18.4984
-18.3321
-18.1971
-18.0926
-18.018
-17.9737
-17.9608
-17.9811
-18.0377
-18.1346
-18.2772
-18.4718
-18.7243
-19.0385
-19.4097
-19.8141
-20.1926
-20.4399
-25.3327
-24.8261
-24.0697
-23.2595
-22.492
-21.8011
-21.1919
-20.6587
-20.1931
-19.7866
-19.4319
-19.1229
-18.8548
-18.624
-18.4276
-18.2634
-18.1298
-18.0256
-17.9505
-17.9047
-17.8891
-17.9061
-17.9589
-18.0525
-18.1937
-18.3912
-18.655
-18.9947
-19.4133
-19.8935
-20.3712
-20.7053
-25.9131
-25.2222
-24.2758
-23.3287
-22.4766
-21.738
-21.1043
-20.5606
-20.0923
-19.6875
-19.3364
-19.0318
-18.7682
-18.5414
-18.3484
-18.1867
-18.0546
-17.951
-17.8753
-17.8276
-17.8089
-17.8216
-17.8694
-17.9581
-18.0957
-18.2936
-18.5663
-18.9307
-19.4011
-19.9731
-20.5852
-21.0537
-26.6661
-25.6821
-24.4819
-23.374
-22.4326
-21.6485
-20.9941
-20.4434
-19.9754
-19.5746
-19.2291
-18.9303
-18.6722
-18.4501
-18.261
-18.1022
-17.972
-17.8691
-17.7927
-17.7428
-17.7205
-17.728
-17.7693
-17.8509
-17.9822
-18.1768
-18.4542
-18.8397
-19.363
-20.0422
-20.8346
-21.5189
-27.6651
-26.196
-24.665
-23.3775
-22.3492
-21.5264
-20.8578
-20.3052
-19.8416
-19.4477
-19.1098
-18.8184
-18.5668
-18.3503
-18.1657
-18.0103
-17.8823
-17.7802
-17.703
-17.6508
-17.6242
-17.6255
-17.6588
-17.731
-17.8524
-18.039
-18.3146
-18.714
-19.2855
-20.0825
-21.1107
-22.1547
-29.0313
-26.7254
-24.787
-23.3161
-22.2143
-21.3656
-20.6923
-20.1447
-19.6901
-19.3065
-18.9786
-18.6962
-18.4523
-18.2421
-18.0627
-17.9112
-17.7857
-17.6846
-17.6067
-17.5519
-17.5204
-17.5146
-17.5381
-17.5983
-17.706
-17.8785
-18.1436
-18.5448
-19.1511
-20.0647
-21.3825
-23.0511
-30.9738
-27.1628
-24.792
-23.1624
-22.016
-21.1607
-20.4952
-19.9606
-19.5206
-19.1511
-18.8357
-18.5641
-18.329
-18.1259
-17.9523
-17.805
-17.6826
-17.5828
-17.5042
-17.4467
-17.4098
-17.3958
-17.4077
-17.4532
-17.5427
-17.6943
-17.938
-18.3238
-18.9394
-19.9453
-21.566
-24.364
-33.8691
-27.2402
-24.6116
-22.8877
-21.7448
-20.9083
-20.2652
-19.7527
-19.3332
-18.982
-18.6816
-18.4226
-18.1973
-18.0019
-17.835
-17.6924
-17.5734
-17.4752
-17.396
-17.3359
-17.293
-17.2702
-17.2683
-17.2966
-17.3634
-17.4866
-17.6965
-18.0448
-18.6296
-19.6717
-21.4548
-26.3759
-38.4217
-26.3174
-24.2051
-22.4678
-21.3968
-20.6075
-20.0023
-19.5214
-19.1285
-18.7999
-18.5168
-18.2724
-18.0579
-17.8705
-17.7114
-17.5734
-17.4586
-17.3624
-17.2827
-17.2204
-17.1707
-17.1388
-17.1211
-17.13
-17.1696
-17.2569
-17.4199
-17.7063
-18.2051
-19.2125
-20.5586
-29.6178
)
;

boundaryField
{
    left
    {
        type            calculated;
        value           nonuniform List<scalar> 
16
(
-23.6232
-23.6611
-23.7381
-23.8571
-24.0224
-24.2407
-24.5216
-24.8788
-25.3327
-25.9131
-26.6661
-27.6651
-29.0313
-30.9738
-33.8691
-38.4217
)
;
    }
    right
    {
        type            calculated;
        value           nonuniform List<scalar> 
16
(
-19.7454
-19.7654
-19.8062
-19.8698
-19.9591
-20.079
-20.236
-20.4399
-20.7053
-21.0537
-21.5189
-22.1547
-23.0511
-24.364
-26.3759
-29.6178
)
;
    }
    interface
    {
        type            calculated;
        value           nonuniform List<scalar> 
32
(
-41.2276
-25.4935
-23.944
-22.2188
-21.2036
-20.445
-19.8628
-19.3999
-19.022
-18.7057
-18.4319
-18.1952
-17.9863
-17.803
-17.648
-17.5123
-17.3999
-17.3048
-17.2247
-17.1615
-17.1082
-17.0718
-17.0455
-17.0443
-17.0692
-17.1367
-17.273
-17.5222
-17.9624
-18.9354
-19.8282
-31.6333
)
;
    }
    bottom
    {
        type            calculated;
        value           nonuniform List<scalar> 
32
(
-23.6138
-23.4631
-23.1821
-22.8041
-22.3655
-21.899
-21.4299
-20.9764
-20.5498
-20.1568
-19.8008
-19.4827
-19.2023
-18.9588
-18.7512
-18.5782
-18.4391
-18.3333
-18.2606
-18.2211
-18.2153
-18.244
-18.308
-18.4075
-18.5418
-18.7084
-18.9015
-19.1111
-19.3219
-19.5128
-19.6599
-19.7405
)
;
    }
    defaultFaces
    {
        type            empty;
    }
}


// ************************************************************************* //
