/*--------------------------------*- C++ -*----------------------------------*\
| =========                 |                                                 |
| \\      /  F ield         | OpenFOAM: The Open Source CFD Toolbox           |
|  \\    /   O peration     | Version:  2112                                  |
|   \\  /    A nd           | Website:  www.openfoam.com                      |
|    \\/     M anipulation  |                                                 |
\*---------------------------------------------------------------------------*/
FoamFile
{
    version     2.0;
    format      ascii;
    arch        "LSB;label=32;scalar=64";
    class       volScalarField;
    location    "3";
    object      gradTx;
}
// * * * * * * * * * * * * * * * * * * * * * * * * * * * * * * * * * * * * * //

dimensions      [0 -1 0 1 0 0 0];

internalField   nonuniform List<scalar> 
512
(
0.0188377
0.0539627
0.0823756
0.102075
0.113143
0.116948
0.115325
0.110017
0.10244
0.093628
0.084274
0.0748098
0.0654778
0.0563905
0.0475754
0.0390043
0.0306143
0.0223216
0.0140332
0.00565889
-0.00287151
-0.0115848
-0.0204296
-0.0292275
-0.0376121
-0.0449611
-0.0503457
-0.0525468
-0.0502149
-0.0422588
-0.0284585
-0.0100732
0.0571521
0.163568
0.249307
0.308385
0.341247
0.352205
0.346901
0.330623
0.307635
0.281024
0.252854
0.224401
0.196376
0.169108
0.142669
0.116971
0.0918221
0.066967
0.0421237
0.0170182
-0.00856661
-0.0347198
-0.0612988
-0.0877846
-0.113094
-0.135374
-0.151833
-0.158774
-0.152052
-0.128239
-0.086523
-0.0306604
0.0974428
0.278346
0.422912
0.521258
0.574835
0.591541
0.58123
0.552919
0.513748
0.468823
0.421517
0.373897
0.327098
0.281629
0.237589
0.194812
0.152966
0.111619
0.0702882
0.0285048
-0.0141131
-0.0577427
-0.102187
-0.146632
-0.189332
-0.227241
-0.255701
-0.268419
-0.258164
-0.218697
-0.148127
-0.0526133
0.141237
0.402215
0.608082
0.745337
0.817655
0.837651
0.820077
0.777952
0.721323
0.657238
0.590281
0.523209
0.457508
0.393814
0.332212
0.272438
0.214003
0.156281
0.0985799
0.0402124
-0.0193958
-0.0805529
-0.143067
-0.205911
-0.266765
-0.32147
-0.363506
-0.383812
-0.371585
-0.316937
-0.215967
-0.0769931
0.190418
0.539869
0.81042
0.98567
1.07357
1.09318
1.06509
1.00664
0.930792
0.846401
0.759103
0.672208
0.587445
0.505502
0.426405
0.349754
0.274884
0.200961
0.127057
0.0522475
-0.0242763
-0.103011
-0.183855
-0.26568
-0.345731
-0.418867
-0.476747
-0.507344
-0.49562
-0.426762
-0.293305
-0.105122
0.247462
0.697258
1.0366
1.24787
1.34659
1.36068
1.31772
1.23972
1.14244
1.03633
0.927862
0.820711
0.716713
0.616516
0.520019
0.426657
0.335559
0.245662
0.155787
0.064733
-0.0285848
-0.124926
-0.224386
-0.325884
-0.426422
-0.520078
-0.596813
-0.641464
-0.633948
-0.552742
-0.384316
-0.138758
0.315812
0.882273
1.29482
1.53824
1.6408
1.64248
1.57915
1.47766
1.35634
1.2269
1.09634
0.968473
0.845078
0.726648
0.612893
0.503033
0.395971
0.290392
0.184841
0.0778117
-0.0321141
-0.146041
-0.264391
-0.386317
-0.508828
-0.625519
-0.724905
-0.788633
-0.790707
-0.70053
-0.494598
-0.180372
0.400482
1.10578
1.59534
1.86387
1.96026
1.94059
1.85018
1.72061
1.57232
1.41781
1.2642
1.11517
0.972255
0.835663
0.704842
0.578757
0.456055
0.335155
0.214301
0.0916468
-0.0346151
-0.166028
-0.303484
-0.446592
-0.592683
-0.735288
-0.861917
-0.951223
-0.970537
-0.877255
-0.631938
-0.233607
0.509106
1.38324
1.95115
2.23259
2.30877
2.25646
2.13107
1.96831
1.78994
1.60856
1.43098
1.26041
1.09791
0.943298
0.795666
0.65369
0.515741
0.379954
0.244253
0.106422
-0.0357955
-0.184477
-0.341144
-0.506107
-0.677402
-0.849051
-1.00827
-1.13132
-1.17852
-1.09198
-0.807515
-0.304056
0.653791
1.73728
2.37861
2.65269
2.68947
2.59067
2.42136
2.21998
2.00838
1.79844
1.59609
1.40371
1.22168
1.04926
0.885144
0.72768
0.574946
0.424785
0.274787
0.122337
-0.0353224
-0.200899
-0.376706
-0.564024
-0.762024
-0.965921
-1.16366
-1.33037
-1.41995
-1.35619
-1.03783
-0.40067
0.854548
2.20189
2.89791
3.13219
3.10412
2.94259
2.71976
2.4743
2.2265
1.98652
1.75879
1.5445
1.34312
1.15322
0.973035
0.800559
0.633575
0.469637
0.30599
0.139602
-0.0328281
-0.214728
-0.409364
-0.619252
-0.845163
-1.08433
-1.32681
-1.54871
-1.69972
-1.68404
-1.34784
-0.538336
1.14579
2.82937
3.53269
3.67736
3.55221
3.30992
3.02392
2.7293
2.44276
2.17164
1.91823
1.68217
1.46178
1.25484
1.05908
0.872144
0.691516
0.514483
0.337938
0.158432
-0.0279207
-0.225336
-0.43818
-0.670454
-0.924978
-1.2019
-1.49511
-1.78477
-2.02116
-2.09202
-1.77619
-0.742804
1.58909
3.70196
4.30718
4.29007
4.02967
3.6883
3.33034
2.98239
2.65527
2.35243
2.07343
1.81601
1.57718
1.35377
1.14302
0.942238
0.748638
0.559281
0.370693
0.179031
-0.0201985
-0.232047
-0.462108
-0.716074
-0.999181
-1.3154
-1.6643
-2.03415
-2.38399
-2.59668
-2.38393
-1.06033
2.29874
4.95152
5.23732
4.9637
4.52748
4.07093
3.63437
3.2304
2.86183
2.52739
2.22337
1.94533
1.68884
1.44964
1.22457
1.01063
0.804789
0.603967
0.404289
0.201585
-0.00926759
-0.23416
-0.480027
-0.754387
-1.06509
-1.42073
-1.82825
-2.28852
-2.78112
-3.20772
-3.26937
-1.57709
3.49461
6.79289
6.3074
5.67808
5.03048
4.44869
3.9304
3.46969
3.06001
2.69487
2.36693
2.06938
1.7963
1.54209
1.30344
1.07711
0.859785
0.648459
0.438723
0.226249
0.00523409
-0.230981
-0.490785
-0.783588
-1.11975
-1.51308
-1.97902
-2.53482
-3.19476
-3.91001
-4.59327
-2.45929
5.61323
9.58027
7.41354
6.39714
5.51717
4.81072
4.21219
3.69638
3.2472
2.8532
2.50305
2.18745
1.89918
1.63078
1.37936
1.14146
0.913386
0.69265
0.473927
0.253122
0.0235987
-0.221853
-0.493255
-0.801921
-1.16011
-1.58727
-2.10733
-2.75508
-3.59459
-4.62032
-6.62146
-4.03765
)
;

boundaryField
{
    left
    {
        type            calculated;
        value           uniform 0;
    }
    right
    {
        type            calculated;
        value           uniform 0;
    }
    interface
    {
        type            calculated;
        value           nonuniform List<scalar> 
32
(
5.61323
9.58027
7.41354
6.39714
5.51717
4.81072
4.21219
3.69638
3.2472
2.8532
2.50305
2.18745
1.89918
1.63078
1.37936
1.14146
0.913386
0.69265
0.473927
0.253122
0.0235987
-0.221853
-0.493255
-0.801921
-1.16011
-1.58727
-2.10733
-2.75508
-3.59459
-4.62032
-6.62146
-4.03765
)
;
    }
    bottom
    {
        type            calculated;
        value           nonuniform List<scalar> 
32
(
0.0188377
0.0539627
0.0823756
0.102075
0.113143
0.116948
0.115325
0.110017
0.10244
0.093628
0.084274
0.0748098
0.0654778
0.0563905
0.0475754
0.0390043
0.0306143
0.0223216
0.0140332
0.00565889
-0.00287151
-0.0115848
-0.0204296
-0.0292275
-0.0376121
-0.0449611
-0.0503457
-0.0525468
-0.0502149
-0.0422588
-0.0284585
-0.0100732
)
;
    }
    defaultFaces
    {
        type            empty;
    }
}


// ************************************************************************* //
