/*--------------------------------*- C++ -*----------------------------------*\
| =========                 |                                                 |
| \\      /  F ield         | OpenFOAM: The Open Source CFD Toolbox           |
|  \\    /   O peration     | Version:  2112                                  |
|   \\  /    A nd           | Website:  www.openfoam.com                      |
|    \\/     M anipulation  |                                                 |
\*---------------------------------------------------------------------------*/
FoamFile
{
    version     2.0;
    format      ascii;
    arch        "LSB;label=32;scalar=64";
    class       volScalarField;
    location    "3";
    object      T;
}
// * * * * * * * * * * * * * * * * * * * * * * * * * * * * * * * * * * * * * //

dimensions      [0 0 0 1 0 0 0];

internalField   nonuniform List<scalar> 
512
(
309.816
309.817
309.819
309.822
309.825
309.829
309.833
309.836
309.839
309.843
309.845
309.848
309.85
309.852
309.854
309.855
309.856
309.857
309.857
309.858
309.858
309.857
309.857
309.856
309.855
309.854
309.852
309.851
309.849
309.848
309.846
309.846
309.446
309.45
309.456
309.465
309.476
309.487
309.498
309.508
309.518
309.528
309.536
309.543
309.55
309.556
309.561
309.565
309.568
309.57
309.572
309.573
309.573
309.572
309.571
309.569
309.565
309.562
309.557
309.552
309.547
309.543
309.539
309.537
309.076
309.082
309.094
309.109
309.126
309.145
309.163
309.181
309.198
309.213
309.227
309.239
309.25
309.26
309.268
309.275
309.28
309.284
309.287
309.289
309.289
309.288
309.285
309.281
309.276
309.269
309.262
309.253
309.245
309.237
309.231
309.228
308.704
308.713
308.73
308.751
308.776
308.802
308.829
308.854
308.877
308.899
308.918
308.936
308.951
308.964
308.976
308.985
308.993
308.998
309.002
309.004
309.005
309.003
309
308.994
308.987
308.978
308.967
308.955
308.943
308.932
308.923
308.918
308.331
308.342
308.364
308.393
308.426
308.46
308.494
308.527
308.557
308.585
308.61
308.632
308.652
308.669
308.684
308.696
308.706
308.713
308.718
308.721
308.721
308.719
308.715
308.708
308.698
308.686
308.672
308.656
308.64
308.625
308.614
308.607
307.954
307.969
307.997
308.034
308.075
308.118
308.16
308.2
308.238
308.272
308.303
308.33
308.354
308.375
308.392
308.407
308.419
308.428
308.434
308.438
308.438
308.436
308.431
308.422
308.41
308.395
308.378
308.358
308.338
308.318
308.303
308.294
307.573
307.593
307.628
307.674
307.724
307.776
307.827
307.875
307.919
307.96
307.996
308.028
308.057
308.081
308.102
308.119
308.133
308.144
308.152
308.156
308.156
308.154
308.147
308.137
308.123
308.105
308.084
308.06
308.035
308.011
307.991
307.98
307.187
307.212
307.257
307.312
307.373
307.435
307.494
307.55
307.602
307.649
307.69
307.728
307.76
307.788
307.812
307.832
307.849
307.861
307.869
307.874
307.875
307.872
307.865
307.853
307.837
307.816
307.791
307.762
307.732
307.702
307.677
307.662
306.796
306.827
306.882
306.949
307.022
307.094
307.163
307.227
307.286
307.339
307.386
307.428
307.465
307.497
307.524
307.546
307.565
307.579
307.588
307.594
307.595
307.592
307.584
307.57
307.552
307.528
307.499
307.465
307.428
307.391
307.36
307.341
306.396
306.437
306.504
306.585
306.67
306.753
306.832
306.905
306.971
307.03
307.083
307.13
307.171
307.206
307.236
307.262
307.282
307.298
307.308
307.315
307.316
307.313
307.304
307.289
307.268
307.241
307.208
307.169
307.125
307.08
307.04
307.015
305.986
306.039
306.123
306.22
306.319
306.414
306.503
306.584
306.658
306.723
306.782
306.833
306.878
306.917
306.95
306.978
307
307.018
307.03
307.037
307.039
307.035
307.025
307.009
306.986
306.956
306.919
306.873
306.822
306.767
306.717
306.683
305.562
305.634
305.739
305.855
305.969
306.077
306.176
306.266
306.347
306.419
306.482
306.538
306.587
306.63
306.666
306.696
306.72
306.739
306.752
306.76
306.762
306.758
306.748
306.731
306.706
306.673
306.631
306.58
306.52
306.454
306.389
306.343
305.121
305.221
305.353
305.49
305.621
305.742
305.851
305.95
306.038
306.116
306.185
306.245
306.298
306.344
306.383
306.415
306.442
306.462
306.477
306.485
306.488
306.484
306.473
306.455
306.428
306.393
306.346
306.289
306.219
306.14
306.057
305.991
304.655
304.799
304.965
305.126
305.275
305.409
305.529
305.636
305.731
305.815
305.889
305.954
306.011
306.06
306.101
306.136
306.164
306.186
306.202
306.212
306.215
306.211
306.2
306.181
306.153
306.115
306.064
306
305.921
305.826
305.721
305.622
304.153
304.372
304.578
304.766
304.933
305.08
305.211
305.326
305.428
305.517
305.596
305.665
305.725
305.777
305.822
305.859
305.889
305.912
305.929
305.94
305.944
305.94
305.929
305.91
305.88
305.84
305.786
305.716
305.627
305.516
305.383
305.229
303.597
303.948
304.196
304.411
304.595
304.756
304.896
305.019
305.127
305.222
305.305
305.378
305.442
305.497
305.544
305.583
305.615
305.64
305.659
305.67
305.674
305.671
305.66
305.641
305.61
305.568
305.511
305.436
305.339
305.212
305.05
304.798
)
;

boundaryField
{
    left
    {
        type            zeroGradient;
    }
    right
    {
        type            zeroGradient;
    }
    interface
    {
        type            fixedValue;
        value           nonuniform List<scalar> 
32
(
303.275
303.748
304.009
304.237
304.43
304.596
304.741
304.867
304.978
305.076
305.161
305.236
305.301
305.358
305.406
305.446
305.479
305.505
305.524
305.536
305.541
305.538
305.527
305.507
305.477
305.434
305.376
305.299
305.199
305.064
304.895
304.551
)
;
    }
    bottom
    {
        type            fixedValue;
        value           uniform 310;
    }
    defaultFaces
    {
        type            empty;
    }
}


// ************************************************************************* //
