/*--------------------------------*- C++ -*----------------------------------*\
| =========                 |                                                 |
| \\      /  F ield         | OpenFOAM: The Open Source CFD Toolbox           |
|  \\    /   O peration     | Version:  2112                                  |
|   \\  /    A nd           | Website:  www.openfoam.com                      |
|    \\/     M anipulation  |                                                 |
\*---------------------------------------------------------------------------*/
FoamFile
{
    version     2.0;
    format      ascii;
    arch        "LSB;label=32;scalar=64";
    class       volVectorField;
    location    "10";
    object      flux;
}
// * * * * * * * * * * * * * * * * * * * * * * * * * * * * * * * * * * * * * //

dimensions      [0 1 -1 1 0 0 0];

internalField   nonuniform List<vector> 
512
(
(0.0213423 -23.1687 0)
(0.0614587 -22.9967 0)
(0.0948308 -22.6737 0)
(0.119447 -22.2337 0)
(0.135384 -21.7138 0)
(0.144008 -21.147 0)
(0.147136 -20.559 0)
(0.146492 -19.968 0)
(0.143464 -19.3858 0)
(0.139055 -18.8196 0)
(0.133927 -18.273 0)
(0.128483 -17.748 0)
(0.122934 -17.2451 0)
(0.117357 -16.7645 0)
(0.111742 -16.3063 0)
(0.106014 -15.8705 0)
(0.10006 -15.458 0)
(0.0937393 -15.0699 0)
(0.0869008 -14.7078 0)
(0.0793953 -14.3743 0)
(0.071094 -14.0723 0)
(0.0619127 -13.8051 0)
(0.0518443 -13.5765 0)
(0.0410003 -13.39 0)
(0.0296606 -13.2483 0)
(0.0183236 -13.1527 0)
(0.00773926 -13.1021 0)
(-0.00111118 -13.0916 0)
(-0.0071436 -13.1124 0)
(-0.00946297 -13.1506 0)
(-0.00781182 -13.19 0)
(-0.00300863 -13.2147 0)
(0.0646688 -23.2118 0)
(0.186062 -23.0345 0)
(0.286681 -22.703 0)
(0.36051 -22.2537 0)
(0.40798 -21.7255 0)
(0.433398 -21.1523 0)
(0.442352 -20.5597 0)
(0.440074 -19.9658 0)
(0.430739 -19.3819 0)
(0.417343 -18.8147 0)
(0.40186 -18.2677 0)
(0.385475 -17.7425 0)
(0.368808 -17.2396 0)
(0.352083 -16.759 0)
(0.335255 -16.3006 0)
(0.3181 -15.8647 0)
(0.300272 -15.4519 0)
(0.281348 -15.0633 0)
(0.260871 -14.7007 0)
(0.238387 -14.3664 0)
(0.213504 -14.0635 0)
(0.185962 -13.7955 0)
(0.155729 -13.566 0)
(0.123128 -13.3787 0)
(0.0889842 -13.2367 0)
(0.0547858 -13.1414 0)
(0.0227872 -13.0919 0)
(-0.00403546 -13.0838 0)
(-0.0223571 -13.1078 0)
(-0.0293806 -13.1503 0)
(-0.0242235 -13.1936 0)
(-0.00932965 -13.2208 0)
(0.109981 -23.2991 0)
(0.315859 -23.1108 0)
(0.485229 -22.7616 0)
(0.608163 -22.2934 0)
(0.68609 -21.7485 0)
(0.726905 -21.1624 0)
(0.740374 -20.5608 0)
(0.735419 -19.9611 0)
(0.719029 -19.3737 0)
(0.696154 -18.8047 0)
(0.670019 -18.2569 0)
(0.642539 -17.7314 0)
(0.614698 -17.2284 0)
(0.586835 -16.7478 0)
(0.558852 -16.2894 0)
(0.530357 -15.8532 0)
(0.500761 -15.4398 0)
(0.469349 -15.0503 0)
(0.435346 -14.6865 0)
(0.397982 -14.3507 0)
(0.356584 -14.046 0)
(0.310691 -13.7761 0)
(0.260214 -13.5448 0)
(0.205648 -13.3561 0)
(0.14833 -13.2133 0)
(0.0907068 -13.1185 0)
(0.0365496 -13.0713 0)
(-0.0090778 -13.0677 0)
(-0.0403898 -13.0987 0)
(-0.0523406 -13.1495 0)
(-0.0430709 -13.2011 0)
(-0.0165941 -13.2335 0)
(0.158811 -23.4335 0)
(0.454783 -23.2274 0)
(0.695386 -22.8501 0)
(0.867065 -22.3523 0)
(0.973478 -21.7819 0)
(1.02725 -21.1764 0)
(1.043 -20.5615 0)
(1.03362 -19.9533 0)
(1.00894 -19.361 0)
(0.975781 -18.7894 0)
(0.938515 -18.2405 0)
(0.899694 -17.7147 0)
(0.860595 -17.2117 0)
(0.821619 -16.7311 0)
(0.782579 -16.2725 0)
(0.742893 -15.8359 0)
(0.701709 -15.4216 0)
(0.658004 -15.0308 0)
(0.610668 -14.6652 0)
(0.558595 -14.3271 0)
(0.500798 -14.0198 0)
(0.436576 -13.747 0)
(0.365733 -13.513 0)
(0.288871 -13.3219 0)
(0.207767 -13.1779 0)
(0.125776 -13.0837 0)
(0.0481927 -13.0398 0)
(-0.0176884 -13.0429 0)
(-0.0632557 -13.0844 0)
(-0.0806015 -13.1485 0)
(-0.0662253 -13.2133 0)
(-0.0255434 -13.2543 0)
(0.213053 -23.6195 0)
(0.607549 -23.3867 0)
(0.922775 -22.9688 0)
(1.14228 -22.4293 0)
(1.27403 -21.824 0)
(1.33709 -21.1927 0)
(1.35192 -20.5605 0)
(1.33565 -19.9415 0)
(1.30097 -19.3432 0)
(1.25644 -18.7685 0)
(1.2074 -18.2183 0)
(1.15692 -17.6922 0)
(1.10646 -17.1894 0)
(1.05642 -16.7089 0)
(1.00647 -16.2502 0)
(0.955809 -15.813 0)
(0.903293 -15.3976 0)
(0.847574 -15.005 0)
(0.787185 -14.637 0)
(0.720649 -14.2959 0)
(0.646632 -13.985 0)
(0.564133 -13.7083 0)
(0.472773 -13.4703 0)
(0.373174 -13.276 0)
(0.267444 -13.13 0)
(0.159761 -13.0362 0)
(0.0569272 -12.9964 0)
(-0.0313645 -13.0085 0)
(-0.0931692 -13.0643 0)
(-0.116787 -13.1472 0)
(-0.095964 -13.2313 0)
(-0.0371047 -13.2852 0)
(0.275194 -23.8636 0)
(0.780133 -23.5923 0)
(1.17409 -23.1178 0)
(1.43944 -22.5227 0)
(1.59175 -21.8726 0)
(1.659 -21.2093 0)
(1.6686 -20.5562 0)
(1.64229 -19.9246 0)
(1.59547 -19.3194 0)
(1.53822 -18.7414 0)
(1.47665 -18.1901 0)
(1.41415 -17.664 0)
(1.35223 -17.1615 0)
(1.29121 -16.6813 0)
(1.23055 -16.2225 0)
(1.16919 -15.7847 0)
(1.10569 -15.3679 0)
(1.03832 -14.9731 0)
(0.965249 -14.602 0)
(0.884589 -14.2571 0)
(0.794602 -13.9416 0)
(0.693923 -13.6598 0)
(0.581894 -13.4167 0)
(0.459031 -13.2178 0)
(0.327634 -13.069 0)
(0.192557 -12.9752 0)
(0.0620456 -12.94 0)
(-0.0516481 -12.9631 0)
(-0.132623 -13.0375 0)
(-0.164077 -13.1457 0)
(-0.135218 -13.2568 0)
(-0.0525157 -13.3296 0)
(0.348694 -24.1756 0)
(0.980461 -23.8488 0)
(1.45757 -23.2969 0)
(1.76486 -22.63 0)
(1.93073 -21.9246 0)
(1.99532 -21.2234 0)
(1.99426 -20.5465 0)
(1.95405 -19.9012 0)
(1.89258 -19.2888 0)
(1.82108 -18.7077 0)
(1.74613 -18.1556 0)
(1.67123 -17.6298 0)
(1.59778 -17.128 0)
(1.5259 -16.6484 0)
(1.45481 -16.1896 0)
(1.38312 -15.751 0)
(1.30905 -15.3327 0)
(1.23051 -14.9353 0)
(1.14522 -14.5605 0)
(1.05088 -14.2108 0)
(0.945264 -13.8897 0)
(0.826572 -13.6016 0)
(0.693748 -13.352 0)
(0.547047 -13.1472 0)
(0.388769 -12.9941 0)
(0.224236 -12.8995 0)
(0.0629809 -12.869 0)
(-0.080097 -12.9048 0)
(-0.184451 -13.0021 0)
(-0.226436 -13.1433 0)
(-0.187936 -13.2917 0)
(-0.0735198 -13.3921 0)
(0.438595 -24.5692 0)
(1.21945 -24.1615 0)
(1.7835 -23.5049 0)
(2.12563 -22.7468 0)
(2.29504 -21.9754 0)
(2.34805 -21.2314 0)
(2.32971 -20.5288 0)
(2.27113 -19.8695 0)
(2.19219 -19.2503 0)
(2.1048 -18.6668 0)
(2.01561 -18.1145 0)
(1.92794 -17.5896 0)
(1.84295 -17.089 0)
(1.76041 -16.6102 0)
(1.67922 -16.1516 0)
(1.59766 -15.7123 0)
(1.51355 -15.2922 0)
(1.42439 -14.8918 0)
(1.32748 -14.5128 0)
(1.22 -14.1575 0)
(1.09922 -13.8296 0)
(0.962777 -13.5338 0)
(0.809098 -13.2761 0)
(0.637986 -13.0636 0)
(0.451497 -12.9046 0)
(0.255122 -12.8077 0)
(0.0593941 -12.7813 0)
(-0.118212 -12.8311 0)
(-0.251867 -12.9557 0)
(-0.308903 -13.139 0)
(-0.259625 -13.3387 0)
(-0.102687 -13.4796 0)
(0.552574 -25.0649 0)
(1.51265 -24.5364 0)
(2.1649 -23.7382 0)
(2.52958 -22.867 0)
(2.68844 -22.0195 0)
(2.71862 -21.229 0)
(2.67521 -20.5004 0)
(2.59331 -19.8278 0)
(2.49392 -19.2029 0)
(2.38897 -18.6181 0)
(2.28472 -18.0666 0)
(2.18399 -17.5434 0)
(2.0875 -17.0445 0)
(1.99458 -16.567 0)
(1.90374 -16.1088 0)
(1.81284 -15.6689 0)
(1.71931 -15.2468 0)
(1.62023 -14.843 0)
(1.51239 -14.459 0)
(1.39246 -14.0973 0)
(1.25711 -13.7614 0)
(1.10332 -13.4565 0)
(0.928833 -13.1888 0)
(0.732799 -12.9667 0)
(0.516727 -12.7995 0)
(0.285873 -12.6983 0)
(0.0513006 -12.6746 0)
(-0.167297 -12.7386 0)
(-0.338431 -12.8946 0)
(-0.417923 -13.1307 0)
(-0.358205 -13.4002 0)
(-0.143964 -13.6022 0)
(0.702814 -25.6926 0)
(1.88281 -24.9788 0)
(2.61821 -23.9897 0)
(2.98497 -22.9813 0)
(3.11402 -22.0492 0)
(3.10759 -21.2112 0)
(3.03033 -20.4579 0)
(2.91986 -19.7741 0)
(2.79705 -19.1456 0)
(2.67296 -18.561 0)
(2.55294 -18.0116 0)
(2.43899 -17.4911 0)
(2.33116 -16.9947 0)
(2.22825 -16.5189 0)
(2.12827 -16.0615 0)
(2.02869 -15.621 0)
(1.92648 -15.1968 0)
(1.81827 -14.7893 0)
(1.70035 -14.3997 0)
(1.5688 -14.0306 0)
(1.41963 -13.6855 0)
(1.24906 -13.3697 0)
(1.05399 -13.0902 0)
(0.832655 -12.8559 0)
(0.585685 -12.6779 0)
(0.317586 -12.5694 0)
(0.0392414 -12.5459 0)
(-0.228225 -12.6231 0)
(-0.447893 -12.8134 0)
(-0.561705 -13.1138 0)
(-0.495377 -13.4785 0)
(-0.203659 -13.775 0)
(0.909452 -26.4988 0)
(2.36412 -25.4901 0)
(3.16368 -24.246 0)
(3.49979 -23.0765 0)
(3.57347 -22.0555 0)
(3.51427 -21.1722 0)
(3.39376 -20.3981 0)
(3.24949 -19.7066 0)
(3.10049 -19.0773 0)
(2.95594 -18.4951 0)
(2.81964 -17.9495 0)
(2.69247 -17.4328 0)
(2.5736 -16.9397 0)
(2.46118 -16.4663 0)
(2.35272 -16.0099 0)
(2.2452 -15.569 0)
(2.13516 -15.1426 0)
(2.01875 -14.731 0)
(1.89173 -14.3353 0)
(1.74957 -13.9579 0)
(1.58752 -13.6023 0)
(1.40096 -13.274 0)
(1.18574 -12.9803 0)
(0.93896 -12.7311 0)
(0.659964 -12.5389 0)
(0.351899 -12.4193 0)
(0.0244992 -12.3918 0)
(-0.301069 -12.4791 0)
(-0.583792 -12.7045 0)
(-0.750454 -13.0806 0)
(-0.688838 -13.5735 0)
(-0.292255 -14.0218 0)
(1.20714 -27.5571 0)
(3.00921 -26.0603 0)
(3.82502 -24.4836 0)
(4.0802 -23.1346 0)
(4.06615 -22.0273 0)
(3.93627 -21.106 0)
(3.76313 -20.3177 0)
(3.5803 -19.6237 0)
(3.40283 -18.9972 0)
(3.23687 -18.4201 0)
(3.08407 -17.8801 0)
(2.94387 -17.3686 0)
(2.81442 -16.8798 0)
(2.69313 -16.4094 0)
(2.57694 -15.9545 0)
(2.46235 -15.5133 0)
(2.34545 -15.0848 0)
(2.22191 -14.6688 0)
(2.08693 -14.2664 0)
(1.93533 -13.8797 0)
(1.76158 -13.5122 0)
(1.56006 -13.1695 0)
(1.32543 -12.8592 0)
(1.05336 -12.5919 0)
(0.741559 -12.3816 0)
(0.391094 -12.2461 0)
(0.00934958 -12.209 0)
(-0.384571 -12.3005 0)
(-0.748656 -12.5578 0)
(-0.996167 -13.0181 0)
(-0.965976 -13.6792 0)
(-0.427849 -14.3805 0)
(1.65785 -28.9896 0)
(3.90086 -26.6505 0)
(4.62652 -24.6643 0)
(4.72792 -23.1323 0)
(4.58778 -21.9527 0)
(4.36909 -21.0065 0)
(4.13492 -20.2137 0)
(3.90976 -19.5238 0)
(3.70229 -18.9047 0)
(3.5145 -18.3358 0)
(3.34536 -17.8035 0)
(3.19258 -17.2988 0)
(3.05321 -16.8153 0)
(2.92382 -16.3486 0)
(2.80077 -15.8958 0)
(2.6801 -15.4545 0)
(2.55741 -15.0238 0)
(2.42794 -14.6032 0)
(2.2863 -14.1935 0)
(2.12665 -13.7967 0)
(1.94261 -13.416 0)
(1.72749 -13.0569 0)
(1.47452 -12.7272 0)
(1.17775 -12.4386 0)
(0.832878 -12.2055 0)
(0.438168 -12.0482 0)
(-0.0026896 -11.994 0)
(-0.475458 -12.0803 0)
(-0.942591 -12.3602 0)
(-1.31117 -12.9051 0)
(-1.37005 -13.7748 0)
(-0.642883 -14.9144 0)
(2.37671 -31.0069 0)
(5.17185 -27.1524 0)
(5.5841 -24.7315 0)
(5.436 -23.0419 0)
(5.12906 -21.8198 0)
(4.80577 -20.8686 0)
(4.50447 -20.084 0)
(4.23481 -19.4062 0)
(3.99684 -18.7997 0)
(3.78746 -18.2424 0)
(3.60255 -17.72 0)
(3.43795 -17.2237 0)
(3.28952 -16.7467 0)
(3.15293 -16.2844 0)
(3.02402 -15.8341 0)
(2.89835 -15.393 0)
(2.77108 -14.9602 0)
(2.63703 -14.5349 0)
(2.49019 -14.1174 0)
(2.32411 -13.7097 0)
(2.13145 -13.3143 0)
(1.90442 -12.937 0)
(1.63462 -12.5851 0)
(1.31423 -12.2713 0)
(0.936716 -12.0105 0)
(0.496845 -11.8246 0)
(-0.0066757 -11.7439 0)
(-0.567666 -11.8117 0)
(-1.16108 -12.0963 0)
(-1.70346 -12.711 0)
(-1.9706 -13.8028 0)
(-0.997659 -15.7333 0)
(3.58512 -33.9878 0)
(7.03856 -27.2959 0)
(6.68178 -24.6159 0)
(6.18379 -22.8345 0)
(5.67441 -21.6191 0)
(5.23696 -20.6891 0)
(4.8661 -19.9276 0)
(4.55193 -19.2709 0)
(4.28423 -18.6824 0)
(4.05431 -18.1402 0)
(3.85468 -17.6301 0)
(3.67927 -17.1438 0)
(3.52287 -16.6743 0)
(3.38012 -16.2172 0)
(3.24647 -15.7701 0)
(3.11702 -15.3295 0)
(2.98647 -14.8948 0)
(2.84934 -14.4647 0)
(2.69892 -14.0389 0)
(2.52823 -13.6196 0)
(2.32892 -13.208 0)
(2.09207 -12.8108 0)
(1.80742 -12.4334 0)
(1.46504 -12.0907 0)
(1.0562 -11.7968 0)
(0.571495 -11.5747 0)
(0.00377844 -11.4565 0)
(-0.651679 -11.4888 0)
(-1.39227 -11.7497 0)
(-2.16444 -12.3975 0)
(-2.88119 -13.6212 0)
(-1.60812 -17.0345 0)
(5.7227 -38.6418 0)
(9.8578 -26.4363 0)
(7.81477 -24.2757 0)
(6.93443 -22.4857 0)
(6.20179 -21.347 0)
(5.65149 -20.4674 0)
(5.21356 -19.7451 0)
(4.85744 -19.1185 0)
(4.56218 -18.5535 0)
(4.31359 -18.03 0)
(4.10075 -17.5342 0)
(3.91585 -17.0597 0)
(3.75281 -16.5988 0)
(3.60503 -16.1476 0)
(3.46787 -15.7044 0)
(3.33597 -15.2645 0)
(3.20351 -14.8283 0)
(3.06498 -14.3933 0)
(2.91274 -13.9589 0)
(2.73955 -13.5275 0)
(2.53581 -13.0983 0)
(2.29173 -12.6797 0)
(1.9947 -12.273 0)
(1.63254 -11.8979 0)
(1.19473 -11.5651 0)
(0.666984 -11.2987 0)
(0.0362751 -11.1315 0)
(-0.714277 -11.1086 0)
(-1.61546 -11.3063 0)
(-2.63917 -11.9399 0)
(-4.2891 -12.892 0)
(-2.70433 -19.1882 0)
)
;

boundaryField
{
    left
    {
        type            calculated;
        value           nonuniform List<vector> 
16
(
(0 -23.1687 0)
(0 -23.2118 0)
(0 -23.2991 0)
(0 -23.4335 0)
(0 -23.6195 0)
(0 -23.8636 0)
(0 -24.1756 0)
(0 -24.5692 0)
(0 -25.0649 0)
(0 -25.6926 0)
(0 -26.4988 0)
(0 -27.5571 0)
(0 -28.9896 0)
(0 -31.0069 0)
(0 -33.9878 0)
(0 -38.6418 0)
)
;
    }
    right
    {
        type            calculated;
        value           nonuniform List<vector> 
16
(
(0 -13.2147 0)
(0 -13.2208 0)
(0 -13.2335 0)
(0 -13.2543 0)
(0 -13.2852 0)
(0 -13.3296 0)
(0 -13.3921 0)
(0 -13.4796 0)
(0 -13.6022 0)
(0 -13.775 0)
(0 -14.0218 0)
(0 -14.3805 0)
(0 -14.9144 0)
(0 -15.7333 0)
(0 -17.0345 0)
(0 -19.1882 0)
)
;
    }
    interface
    {
        type            calculated;
        value           nonuniform List<vector> 
32
(
(5.7227 -41.5031 0)
(9.8578 -25.6426 0)
(7.81477 -24.0481 0)
(6.93443 -22.2733 0)
(6.20179 -21.1932 0)
(5.65149 -20.3462 0)
(5.21356 -19.6474 0)
(4.85744 -19.0382 0)
(4.56218 -18.4863 0)
(4.31359 -17.973 0)
(4.10075 -17.4849 0)
(3.91585 -17.0167 0)
(3.75281 -16.5604 0)
(3.60503 -16.1122 0)
(3.46787 -15.6713 0)
(3.33597 -15.2318 0)
(3.20351 -14.7949 0)
(3.06498 -14.3575 0)
(2.91274 -13.9185 0)
(2.73955 -13.4811 0)
(2.53581 -13.0426 0)
(2.29173 -12.6131 0)
(1.9947 -12.1908 0)
(1.63254 -11.7986 0)
(1.19473 -11.4449 0)
(0.666984 -11.1543 0)
(0.0362751 -10.9596 0)
(-0.714277 -10.904 0)
(-1.61546 -11.0589 0)
(-2.63917 -11.6739 0)
(-4.2891 -12.3313 0)
(-2.70433 -20.539 0)
)
;
    }
    bottom
    {
        type            calculated;
        value           nonuniform List<vector> 
32
(
(0.0213423 -23.1581 0)
(0.0614587 -22.9873 0)
(0.0948308 -22.6664 0)
(0.119447 -22.2287 0)
(0.135384 -21.7108 0)
(0.144008 -21.1456 0)
(0.147136 -20.5588 0)
(0.146492 -19.9685 0)
(0.143464 -19.3868 0)
(0.139055 -18.8208 0)
(0.133927 -18.2744 0)
(0.128483 -17.7494 0)
(0.122934 -17.2465 0)
(0.117357 -16.7659 0)
(0.111742 -16.3077 0)
(0.106014 -15.872 0)
(0.10006 -15.4596 0)
(0.0937393 -15.0715 0)
(0.0869008 -14.7096 0)
(0.0793953 -14.3763 0)
(0.071094 -14.0745 0)
(0.0619127 -13.8076 0)
(0.0518443 -13.5792 0)
(0.0410003 -13.3928 0)
(0.0296606 -13.2512 0)
(0.0183236 -13.1555 0)
(0.00773926 -13.1046 0)
(-0.00111118 -13.0936 0)
(-0.0071436 -13.1135 0)
(-0.00946297 -13.1507 0)
(-0.00781182 -13.1892 0)
(-0.00300863 -13.2132 0)
)
;
    }
    defaultFaces
    {
        type            empty;
    }
}


// ************************************************************************* //
