/*--------------------------------*- C++ -*----------------------------------*\
| =========                 |                                                 |
| \\      /  F ield         | OpenFOAM: The Open Source CFD Toolbox           |
|  \\    /   O peration     | Version:  2112                                  |
|   \\  /    A nd           | Website:  www.openfoam.com                      |
|    \\/     M anipulation  |                                                 |
\*---------------------------------------------------------------------------*/
FoamFile
{
    version     2.0;
    format      ascii;
    arch        "LSB;label=32;scalar=64";
    class       volScalarField;
    location    "10";
    object      gradTx;
}
// * * * * * * * * * * * * * * * * * * * * * * * * * * * * * * * * * * * * * //

dimensions      [0 -1 0 1 0 0 0];

internalField   nonuniform List<scalar> 
512
(
0.0213423
0.0614587
0.0948308
0.119447
0.135384
0.144008
0.147136
0.146492
0.143464
0.139055
0.133927
0.128483
0.122934
0.117357
0.111742
0.106014
0.10006
0.0937393
0.0869008
0.0793953
0.071094
0.0619127
0.0518443
0.0410003
0.0296606
0.0183236
0.00773926
-0.00111118
-0.0071436
-0.00946297
-0.00781182
-0.00300863
0.0646688
0.186062
0.286681
0.36051
0.40798
0.433398
0.442352
0.440074
0.430739
0.417343
0.40186
0.385475
0.368808
0.352083
0.335255
0.3181
0.300272
0.281348
0.260871
0.238387
0.213504
0.185962
0.155729
0.123128
0.0889842
0.0547858
0.0227872
-0.00403546
-0.0223571
-0.0293806
-0.0242235
-0.00932965
0.109981
0.315859
0.485229
0.608163
0.68609
0.726905
0.740374
0.735419
0.719029
0.696154
0.670019
0.642539
0.614698
0.586835
0.558852
0.530357
0.500761
0.469349
0.435346
0.397982
0.356584
0.310691
0.260214
0.205648
0.14833
0.0907068
0.0365496
-0.0090778
-0.0403898
-0.0523406
-0.0430709
-0.0165941
0.158811
0.454783
0.695386
0.867065
0.973478
1.02725
1.043
1.03362
1.00894
0.975781
0.938515
0.899694
0.860595
0.821619
0.782579
0.742893
0.701709
0.658004
0.610668
0.558595
0.500798
0.436576
0.365733
0.288871
0.207767
0.125776
0.0481927
-0.0176884
-0.0632557
-0.0806015
-0.0662253
-0.0255434
0.213053
0.607549
0.922775
1.14228
1.27403
1.33709
1.35192
1.33565
1.30097
1.25644
1.2074
1.15692
1.10646
1.05642
1.00647
0.955809
0.903293
0.847574
0.787185
0.720649
0.646632
0.564133
0.472773
0.373174
0.267444
0.159761
0.0569272
-0.0313645
-0.0931692
-0.116787
-0.095964
-0.0371047
0.275194
0.780133
1.17409
1.43944
1.59175
1.659
1.6686
1.64229
1.59547
1.53822
1.47665
1.41415
1.35223
1.29121
1.23055
1.16919
1.10569
1.03832
0.965249
0.884589
0.794602
0.693923
0.581894
0.459031
0.327634
0.192557
0.0620456
-0.0516481
-0.132623
-0.164077
-0.135218
-0.0525157
0.348694
0.980461
1.45757
1.76486
1.93073
1.99532
1.99426
1.95405
1.89258
1.82108
1.74613
1.67123
1.59778
1.5259
1.45481
1.38312
1.30905
1.23051
1.14522
1.05088
0.945264
0.826572
0.693748
0.547047
0.388769
0.224236
0.0629809
-0.080097
-0.184451
-0.226436
-0.187936
-0.0735198
0.438595
1.21945
1.7835
2.12563
2.29504
2.34805
2.32971
2.27113
2.19219
2.1048
2.01561
1.92794
1.84295
1.76041
1.67922
1.59766
1.51355
1.42439
1.32748
1.22
1.09922
0.962777
0.809098
0.637986
0.451497
0.255122
0.0593941
-0.118212
-0.251867
-0.308903
-0.259625
-0.102687
0.552574
1.51265
2.1649
2.52958
2.68844
2.71862
2.67521
2.59331
2.49392
2.38897
2.28472
2.18399
2.0875
1.99458
1.90374
1.81284
1.71931
1.62023
1.51239
1.39246
1.25711
1.10332
0.928833
0.732799
0.516727
0.285873
0.0513006
-0.167297
-0.338431
-0.417923
-0.358205
-0.143964
0.702814
1.88281
2.61821
2.98497
3.11402
3.10759
3.03033
2.91986
2.79705
2.67296
2.55294
2.43899
2.33116
2.22825
2.12827
2.02869
1.92648
1.81827
1.70035
1.5688
1.41963
1.24906
1.05399
0.832655
0.585685
0.317586
0.0392414
-0.228225
-0.447893
-0.561705
-0.495377
-0.203659
0.909452
2.36412
3.16368
3.49979
3.57347
3.51427
3.39376
3.24949
3.10049
2.95594
2.81964
2.69247
2.5736
2.46118
2.35272
2.2452
2.13516
2.01875
1.89173
1.74957
1.58752
1.40096
1.18574
0.93896
0.659964
0.351899
0.0244992
-0.301069
-0.583792
-0.750454
-0.688838
-0.292255
1.20714
3.00921
3.82502
4.0802
4.06615
3.93627
3.76313
3.5803
3.40283
3.23687
3.08407
2.94387
2.81442
2.69313
2.57694
2.46235
2.34545
2.22191
2.08693
1.93533
1.76158
1.56006
1.32543
1.05336
0.741559
0.391094
0.00934958
-0.384571
-0.748656
-0.996167
-0.965976
-0.427849
1.65785
3.90086
4.62652
4.72792
4.58778
4.36909
4.13492
3.90976
3.70229
3.5145
3.34536
3.19258
3.05321
2.92382
2.80077
2.6801
2.55741
2.42794
2.2863
2.12665
1.94261
1.72749
1.47452
1.17775
0.832878
0.438168
-0.0026896
-0.475458
-0.942591
-1.31117
-1.37005
-0.642883
2.37671
5.17185
5.5841
5.436
5.12906
4.80577
4.50447
4.23481
3.99684
3.78746
3.60255
3.43795
3.28952
3.15293
3.02402
2.89835
2.77108
2.63703
2.49019
2.32411
2.13145
1.90442
1.63462
1.31423
0.936716
0.496845
-0.0066757
-0.567666
-1.16108
-1.70346
-1.9706
-0.997659
3.58512
7.03856
6.68178
6.18379
5.67441
5.23696
4.8661
4.55193
4.28423
4.05431
3.85468
3.67927
3.52287
3.38012
3.24647
3.11702
2.98647
2.84934
2.69892
2.52823
2.32892
2.09207
1.80742
1.46504
1.0562
0.571495
0.00377844
-0.651679
-1.39227
-2.16444
-2.88119
-1.60812
5.7227
9.8578
7.81477
6.93443
6.20179
5.65149
5.21356
4.85744
4.56218
4.31359
4.10075
3.91585
3.75281
3.60503
3.46787
3.33597
3.20351
3.06498
2.91274
2.73955
2.53581
2.29173
1.9947
1.63254
1.19473
0.666984
0.0362751
-0.714277
-1.61546
-2.63917
-4.2891
-2.70433
)
;

boundaryField
{
    left
    {
        type            calculated;
        value           uniform 0;
    }
    right
    {
        type            calculated;
        value           uniform 0;
    }
    interface
    {
        type            calculated;
        value           nonuniform List<scalar> 
32
(
5.7227
9.8578
7.81477
6.93443
6.20179
5.65149
5.21356
4.85744
4.56218
4.31359
4.10075
3.91585
3.75281
3.60503
3.46787
3.33597
3.20351
3.06498
2.91274
2.73955
2.53581
2.29173
1.9947
1.63254
1.19473
0.666984
0.0362751
-0.714277
-1.61546
-2.63917
-4.2891
-2.70433
)
;
    }
    bottom
    {
        type            calculated;
        value           nonuniform List<scalar> 
32
(
0.0213423
0.0614587
0.0948308
0.119447
0.135384
0.144008
0.147136
0.146492
0.143464
0.139055
0.133927
0.128483
0.122934
0.117357
0.111742
0.106014
0.10006
0.0937393
0.0869008
0.0793953
0.071094
0.0619127
0.0518443
0.0410003
0.0296606
0.0183236
0.00773926
-0.00111118
-0.0071436
-0.00946297
-0.00781182
-0.00300863
)
;
    }
    defaultFaces
    {
        type            empty;
    }
}


// ************************************************************************* //
