/*--------------------------------*- C++ -*----------------------------------*\
| =========                 |                                                 |
| \\      /  F ield         | OpenFOAM: The Open Source CFD Toolbox           |
|  \\    /   O peration     | Version:  2112                                  |
|   \\  /    A nd           | Website:  www.openfoam.com                      |
|    \\/     M anipulation  |                                                 |
\*---------------------------------------------------------------------------*/
FoamFile
{
    version     2.0;
    format      ascii;
    arch        "LSB;label=32;scalar=64";
    class       volScalarField;
    location    "10";
    object      gradTy;
}
// * * * * * * * * * * * * * * * * * * * * * * * * * * * * * * * * * * * * * //

dimensions      [0 -1 0 1 0 0 0];

internalField   nonuniform List<scalar> 
512
(
-23.1687
-22.9967
-22.6737
-22.2337
-21.7138
-21.147
-20.559
-19.968
-19.3858
-18.8196
-18.273
-17.748
-17.2451
-16.7645
-16.3063
-15.8705
-15.458
-15.0699
-14.7078
-14.3743
-14.0723
-13.8051
-13.5765
-13.39
-13.2483
-13.1527
-13.1021
-13.0916
-13.1124
-13.1506
-13.19
-13.2147
-23.2118
-23.0345
-22.703
-22.2537
-21.7255
-21.1523
-20.5597
-19.9658
-19.3819
-18.8147
-18.2677
-17.7425
-17.2396
-16.759
-16.3006
-15.8647
-15.4519
-15.0633
-14.7007
-14.3664
-14.0635
-13.7955
-13.566
-13.3787
-13.2367
-13.1414
-13.0919
-13.0838
-13.1078
-13.1503
-13.1936
-13.2208
-23.2991
-23.1108
-22.7616
-22.2934
-21.7485
-21.1624
-20.5608
-19.9611
-19.3737
-18.8047
-18.2569
-17.7314
-17.2284
-16.7478
-16.2894
-15.8532
-15.4398
-15.0503
-14.6865
-14.3507
-14.046
-13.7761
-13.5448
-13.3561
-13.2133
-13.1185
-13.0713
-13.0677
-13.0987
-13.1495
-13.2011
-13.2335
-23.4335
-23.2274
-22.8501
-22.3523
-21.7819
-21.1764
-20.5615
-19.9533
-19.361
-18.7894
-18.2405
-17.7147
-17.2117
-16.7311
-16.2725
-15.8359
-15.4216
-15.0308
-14.6652
-14.3271
-14.0198
-13.747
-13.513
-13.3219
-13.1779
-13.0837
-13.0398
-13.0429
-13.0844
-13.1485
-13.2133
-13.2543
-23.6195
-23.3867
-22.9688
-22.4293
-21.824
-21.1927
-20.5605
-19.9415
-19.3432
-18.7685
-18.2183
-17.6922
-17.1894
-16.7089
-16.2502
-15.813
-15.3976
-15.005
-14.637
-14.2959
-13.985
-13.7083
-13.4703
-13.276
-13.13
-13.0362
-12.9964
-13.0085
-13.0643
-13.1472
-13.2313
-13.2852
-23.8636
-23.5923
-23.1178
-22.5227
-21.8726
-21.2093
-20.5562
-19.9246
-19.3194
-18.7414
-18.1901
-17.664
-17.1615
-16.6813
-16.2225
-15.7847
-15.3679
-14.9731
-14.602
-14.2571
-13.9416
-13.6598
-13.4167
-13.2178
-13.069
-12.9752
-12.94
-12.9631
-13.0375
-13.1457
-13.2568
-13.3296
-24.1756
-23.8488
-23.2969
-22.63
-21.9246
-21.2234
-20.5465
-19.9012
-19.2888
-18.7077
-18.1556
-17.6298
-17.128
-16.6484
-16.1896
-15.751
-15.3327
-14.9353
-14.5605
-14.2108
-13.8897
-13.6016
-13.352
-13.1472
-12.9941
-12.8995
-12.869
-12.9048
-13.0021
-13.1433
-13.2917
-13.3921
-24.5692
-24.1615
-23.5049
-22.7468
-21.9754
-21.2314
-20.5288
-19.8695
-19.2503
-18.6668
-18.1145
-17.5896
-17.089
-16.6102
-16.1516
-15.7123
-15.2922
-14.8918
-14.5128
-14.1575
-13.8296
-13.5338
-13.2761
-13.0636
-12.9046
-12.8077
-12.7813
-12.8311
-12.9557
-13.139
-13.3387
-13.4796
-25.0649
-24.5364
-23.7382
-22.867
-22.0195
-21.229
-20.5004
-19.8278
-19.2029
-18.6181
-18.0666
-17.5434
-17.0445
-16.567
-16.1088
-15.6689
-15.2468
-14.843
-14.459
-14.0973
-13.7614
-13.4565
-13.1888
-12.9667
-12.7995
-12.6983
-12.6746
-12.7386
-12.8946
-13.1307
-13.4002
-13.6022
-25.6926
-24.9788
-23.9897
-22.9813
-22.0492
-21.2112
-20.4579
-19.7741
-19.1456
-18.561
-18.0116
-17.4911
-16.9947
-16.5189
-16.0615
-15.621
-15.1968
-14.7893
-14.3997
-14.0306
-13.6855
-13.3697
-13.0902
-12.8559
-12.6779
-12.5694
-12.5459
-12.6231
-12.8134
-13.1138
-13.4785
-13.775
-26.4988
-25.4901
-24.246
-23.0765
-22.0555
-21.1722
-20.3981
-19.7066
-19.0773
-18.4951
-17.9495
-17.4328
-16.9397
-16.4663
-16.0099
-15.569
-15.1426
-14.731
-14.3353
-13.9579
-13.6023
-13.274
-12.9803
-12.7311
-12.5389
-12.4193
-12.3918
-12.4791
-12.7045
-13.0806
-13.5735
-14.0218
-27.5571
-26.0603
-24.4836
-23.1346
-22.0273
-21.106
-20.3177
-19.6237
-18.9972
-18.4201
-17.8801
-17.3686
-16.8798
-16.4094
-15.9545
-15.5133
-15.0848
-14.6688
-14.2664
-13.8797
-13.5122
-13.1695
-12.8592
-12.5919
-12.3816
-12.2461
-12.209
-12.3005
-12.5578
-13.0181
-13.6792
-14.3805
-28.9896
-26.6505
-24.6643
-23.1323
-21.9527
-21.0065
-20.2137
-19.5238
-18.9047
-18.3358
-17.8035
-17.2988
-16.8153
-16.3486
-15.8958
-15.4545
-15.0238
-14.6032
-14.1935
-13.7967
-13.416
-13.0569
-12.7272
-12.4386
-12.2055
-12.0482
-11.994
-12.0803
-12.3602
-12.9051
-13.7748
-14.9144
-31.0069
-27.1524
-24.7315
-23.0419
-21.8198
-20.8686
-20.084
-19.4062
-18.7997
-18.2424
-17.72
-17.2237
-16.7467
-16.2844
-15.8341
-15.393
-14.9602
-14.5349
-14.1174
-13.7097
-13.3143
-12.937
-12.5851
-12.2713
-12.0105
-11.8246
-11.7439
-11.8117
-12.0963
-12.711
-13.8028
-15.7333
-33.9878
-27.2959
-24.6159
-22.8345
-21.6191
-20.6891
-19.9276
-19.2709
-18.6824
-18.1402
-17.6301
-17.1438
-16.6743
-16.2172
-15.7701
-15.3295
-14.8948
-14.4647
-14.0389
-13.6196
-13.208
-12.8108
-12.4334
-12.0907
-11.7968
-11.5747
-11.4565
-11.4888
-11.7497
-12.3975
-13.6212
-17.0345
-38.6418
-26.4363
-24.2757
-22.4857
-21.347
-20.4674
-19.7451
-19.1185
-18.5535
-18.03
-17.5342
-17.0597
-16.5988
-16.1476
-15.7044
-15.2645
-14.8283
-14.3933
-13.9589
-13.5275
-13.0983
-12.6797
-12.273
-11.8979
-11.5651
-11.2987
-11.1315
-11.1086
-11.3063
-11.9399
-12.892
-19.1882
)
;

boundaryField
{
    left
    {
        type            calculated;
        value           nonuniform List<scalar> 
16
(
-23.1687
-23.2118
-23.2991
-23.4335
-23.6195
-23.8636
-24.1756
-24.5692
-25.0649
-25.6926
-26.4988
-27.5571
-28.9896
-31.0069
-33.9878
-38.6418
)
;
    }
    right
    {
        type            calculated;
        value           nonuniform List<scalar> 
16
(
-13.2147
-13.2208
-13.2335
-13.2543
-13.2852
-13.3296
-13.3921
-13.4796
-13.6022
-13.775
-14.0218
-14.3805
-14.9144
-15.7333
-17.0345
-19.1882
)
;
    }
    interface
    {
        type            calculated;
        value           nonuniform List<scalar> 
32
(
-41.5031
-25.6426
-24.0481
-22.2733
-21.1932
-20.3462
-19.6474
-19.0382
-18.4863
-17.973
-17.4849
-17.0167
-16.5604
-16.1122
-15.6713
-15.2318
-14.7949
-14.3575
-13.9185
-13.4811
-13.0426
-12.6131
-12.1908
-11.7986
-11.4449
-11.1543
-10.9596
-10.904
-11.0589
-11.6739
-12.3313
-20.539
)
;
    }
    bottom
    {
        type            calculated;
        value           nonuniform List<scalar> 
32
(
-23.1581
-22.9873
-22.6664
-22.2287
-21.7108
-21.1456
-20.5588
-19.9685
-19.3868
-18.8208
-18.2744
-17.7494
-17.2465
-16.7659
-16.3077
-15.872
-15.4596
-15.0715
-14.7096
-14.3763
-14.0745
-13.8076
-13.5792
-13.3928
-13.2512
-13.1555
-13.1046
-13.0936
-13.1135
-13.1507
-13.1892
-13.2132
)
;
    }
    defaultFaces
    {
        type            empty;
    }
}


// ************************************************************************* //
