/*--------------------------------*- C++ -*----------------------------------*\
| =========                 |                                                 |
| \\      /  F ield         | OpenFOAM: The Open Source CFD Toolbox           |
|  \\    /   O peration     | Version:  2112                                  |
|   \\  /    A nd           | Website:  www.openfoam.com                      |
|    \\/     M anipulation  |                                                 |
\*---------------------------------------------------------------------------*/
FoamFile
{
    version     2.0;
    format      ascii;
    arch        "LSB;label=32;scalar=64";
    class       volScalarField;
    location    "10";
    object      T;
}
// * * * * * * * * * * * * * * * * * * * * * * * * * * * * * * * * * * * * * //

dimensions      [0 0 0 1 0 0 0];

internalField   nonuniform List<scalar> 
512
(
309.819
309.82
309.823
309.826
309.83
309.835
309.839
309.844
309.849
309.853
309.857
309.861
309.865
309.869
309.873
309.876
309.879
309.882
309.885
309.888
309.89
309.892
309.894
309.895
309.896
309.897
309.898
309.898
309.898
309.897
309.897
309.897
309.457
309.461
309.469
309.479
309.491
309.504
309.518
309.532
309.546
309.559
309.572
309.584
309.596
309.607
309.618
309.628
309.638
309.647
309.655
309.663
309.67
309.676
309.682
309.686
309.69
309.692
309.693
309.693
309.693
309.692
309.691
309.69
309.094
309.101
309.113
309.131
309.151
309.174
309.197
309.22
309.243
309.265
309.286
309.307
309.327
309.345
309.363
309.38
309.396
309.412
309.426
309.439
309.451
309.461
309.47
309.477
309.483
309.487
309.488
309.489
309.488
309.486
309.485
309.484
308.729
308.739
308.757
308.782
308.811
308.843
308.876
308.908
308.94
308.971
309.001
309.03
309.057
309.084
309.109
309.133
309.155
309.176
309.196
309.215
309.231
309.246
309.259
309.269
309.277
309.282
309.284
309.285
309.283
309.281
309.278
309.277
308.361
308.375
308.399
308.432
308.471
308.512
308.554
308.597
308.638
308.678
308.716
308.753
308.789
308.822
308.855
308.885
308.914
308.942
308.967
308.991
309.012
309.031
309.048
309.061
309.071
309.078
309.081
309.081
309.079
309.075
309.072
309.069
307.991
308.008
308.039
308.081
308.129
308.181
308.233
308.285
308.336
308.385
308.432
308.477
308.52
308.562
308.601
308.638
308.674
308.708
308.739
308.768
308.794
308.818
308.838
308.854
308.866
308.874
308.878
308.878
308.875
308.87
308.865
308.862
307.616
307.637
307.677
307.729
307.787
307.849
307.912
307.974
308.034
308.092
308.148
308.201
308.252
308.301
308.348
308.392
308.434
308.474
308.511
308.545
308.577
308.605
308.628
308.648
308.663
308.672
308.677
308.676
308.672
308.665
308.657
308.653
307.235
307.263
307.311
307.374
307.444
307.518
307.591
307.663
307.733
307.8
307.865
307.926
307.985
308.041
308.095
308.146
308.195
308.241
308.284
308.324
308.36
308.393
308.42
308.443
308.46
308.471
308.476
308.475
308.469
308.459
308.449
308.443
306.848
306.882
306.942
307.018
307.101
307.186
307.27
307.353
307.433
307.509
307.582
307.652
307.718
307.782
307.843
307.901
307.956
308.009
308.058
308.103
308.145
308.182
308.214
308.24
308.259
308.272
308.277
308.275
308.267
308.254
308.241
308.232
306.452
306.496
306.57
306.659
306.756
306.854
306.95
307.044
307.133
307.218
307.3
307.378
307.452
307.524
307.592
307.657
307.718
307.777
307.832
307.883
307.93
307.972
308.008
308.038
308.06
308.074
308.08
308.077
308.066
308.049
308.031
308.018
306.045
306.102
306.193
306.3
306.411
306.523
306.631
306.735
306.834
306.929
307.019
307.105
307.187
307.266
307.341
307.413
307.481
307.546
307.608
307.665
307.717
307.764
307.804
307.838
307.863
307.879
307.885
307.881
307.866
307.844
307.819
307.801
305.624
305.699
305.812
305.938
306.067
306.192
306.313
306.428
306.537
306.64
306.739
306.833
306.923
307.009
307.091
307.17
307.245
307.317
307.384
307.447
307.505
307.557
307.603
307.64
307.668
307.686
307.693
307.687
307.669
307.64
307.606
307.58
305.184
305.287
305.428
305.577
305.723
305.863
305.996
306.122
306.241
306.353
306.46
306.562
306.66
306.753
306.842
306.928
307.01
307.088
307.162
307.231
307.295
307.352
307.403
307.444
307.476
307.496
307.504
307.496
307.474
307.437
307.392
307.352
304.718
304.866
305.041
305.215
305.381
305.536
305.681
305.818
305.946
306.067
306.183
306.293
306.398
306.498
306.595
306.687
306.776
306.86
306.941
307.016
307.086
307.149
307.205
307.251
307.287
307.31
307.318
307.309
307.283
307.237
307.176
307.114
304.215
304.439
304.655
304.857
305.041
305.211
305.369
305.515
305.653
305.783
305.906
306.024
306.136
306.244
306.348
306.447
306.542
306.634
306.721
306.802
306.879
306.948
307.009
307.061
307.101
307.127
307.137
307.127
307.096
307.04
306.961
306.86
303.656
304.013
304.272
304.502
304.705
304.89
305.059
305.215
305.362
305.5
305.632
305.757
305.876
305.991
306.102
306.208
306.31
306.408
306.502
306.59
306.673
306.749
306.816
306.873
306.918
306.948
306.96
306.95
306.915
306.849
306.75
306.581
)
;

boundaryField
{
    left
    {
        type            zeroGradient;
    }
    right
    {
        type            zeroGradient;
    }
    interface
    {
        type            fixedValue;
        value           nonuniform List<scalar> 
32
(
303.332
303.813
304.084
304.328
304.54
304.731
304.905
305.067
305.218
305.36
305.495
305.624
305.747
305.865
305.979
306.089
306.195
306.296
306.393
306.485
306.571
306.65
306.721
306.781
306.829
306.861
306.874
306.865
306.829
306.758
306.654
306.421
)
;
    }
    bottom
    {
        type            fixedValue;
        value           uniform 310;
    }
    defaultFaces
    {
        type            empty;
    }
}


// ************************************************************************* //
