/*--------------------------------*- C++ -*----------------------------------*\
| =========                 |                                                 |
| \\      /  F ield         | OpenFOAM: The Open Source CFD Toolbox           |
|  \\    /   O peration     | Version:  2112                                  |
|   \\  /    A nd           | Website:  www.openfoam.com                      |
|    \\/     M anipulation  |                                                 |
\*---------------------------------------------------------------------------*/
FoamFile
{
    version     2.0;
    format      ascii;
    arch        "LSB;label=32;scalar=64";
    class       surfaceScalarField;
    location    "5";
    object      phi;
}
// * * * * * * * * * * * * * * * * * * * * * * * * * * * * * * * * * * * * * //

dimensions      [1 0 -1 0 0 0 0];

oriented        oriented;

internalField   nonuniform List<scalar> 
23692
(
2.32926e-06
-2.27667e-09
2.33338e-06
-4.11939e-09
2.33914e-06
-5.75794e-09
2.34634e-06
-7.19855e-09
2.35483e-06
-8.48746e-09
2.36449e-06
-9.65309e-09
2.37521e-06
-1.07142e-08
2.3869e-06
-1.16859e-08
2.39948e-06
-1.25798e-08
2.41289e-06
-1.34051e-08
2.42706e-06
-1.41693e-08
2.44195e-06
-1.48786e-08
2.45749e-06
-1.5538e-08
2.47365e-06
-1.61518e-08
2.49038e-06
-1.67237e-08
2.50764e-06
-1.72565e-08
2.5254e-06
-1.77527e-08
2.54362e-06
-1.82148e-08
2.56227e-06
-1.86442e-08
2.58132e-06
-1.90428e-08
2.60074e-06
-1.94118e-08
2.6205e-06
-1.97523e-08
2.64058e-06
-2.00652e-08
2.66093e-06
-2.03515e-08
2.68155e-06
-2.06118e-08
2.70241e-06
-2.08466e-08
2.72347e-06
-2.10566e-08
2.74472e-06
-2.1242e-08
2.76614e-06
-2.14032e-08
2.78768e-06
-2.15405e-08
2.80935e-06
-2.16541e-08
2.8311e-06
-2.17441e-08
2.85292e-06
-2.18106e-08
2.87478e-06
-2.18535e-08
2.89666e-06
-2.1873e-08
2.91853e-06
-2.18689e-08
2.94038e-06
-2.18411e-08
2.96218e-06
-2.17893e-08
2.9839e-06
-2.17132e-08
3.00552e-06
-2.16127e-08
3.02701e-06
-2.14871e-08
3.04836e-06
-2.13359e-08
3.06952e-06
-2.11586e-08
3.09048e-06
-2.09545e-08
3.11121e-06
-2.07225e-08
3.13168e-06
-2.04616e-08
3.15185e-06
-2.01707e-08
3.17171e-06
-1.98483e-08
3.19121e-06
-1.94927e-08
3.21031e-06
-1.91019e-08
3.22899e-06
-1.86735e-08
3.2472e-06
-1.82049e-08
3.2649e-06
-1.76927e-08
3.28204e-06
-1.71333e-08
3.29856e-06
-1.65219e-08
3.31442e-06
-1.58533e-08
3.32954e-06
-1.51209e-08
3.34386e-06
-1.43171e-08
3.3573e-06
-1.34324e-08
3.36976e-06
-1.24554e-08
3.38113e-06
-1.13721e-08
3.3913e-06
-1.01653e-08
3.40012e-06
-8.81318e-09
3.40741e-06
-7.28873e-09
3.41297e-06
-5.55725e-09
3.41655e-06
-3.57412e-09
3.41783e-06
-1.28113e-09
3.41643e-06
1.39934e-09
3.41186e-06
4.57424e-09
3.40347e-06
8.39172e-09
3.39041e-06
1.3062e-08
3.37152e-06
1.88905e-08
3.34519e-06
2.63335e-08
3.3091e-06
3.60919e-08
3.25983e-06
4.92741e-08
3.19214e-06
6.76818e-08
3.09784e-06
9.43107e-08
2.96356e-06
1.34279e-07
2.76658e-06
1.96975e-07
2.46502e-06
3.01561e-07
5.02674e-07
1.96235e-06
2.49235e-06
-4.65274e-09
2.49674e-06
-8.5026e-09
2.50288e-06
-1.18995e-08
2.51056e-06
-1.48807e-08
2.51963e-06
-1.75491e-08
2.52994e-06
-1.99618e-08
2.54139e-06
-2.2158e-08
2.55387e-06
-2.41689e-08
2.56732e-06
-2.60186e-08
2.58164e-06
-2.77262e-08
2.59679e-06
-2.93074e-08
2.61269e-06
-3.07747e-08
2.62929e-06
-3.21389e-08
2.64656e-06
-3.34086e-08
2.66443e-06
-3.45912e-08
2.68287e-06
-3.56931e-08
2.70185e-06
-3.67195e-08
2.72132e-06
-3.76747e-08
2.74124e-06
-3.85627e-08
2.76159e-06
-3.93866e-08
2.78234e-06
-4.01492e-08
2.80345e-06
-4.08528e-08
2.82489e-06
-4.14994e-08
2.84664e-06
-4.20908e-08
2.86866e-06
-4.26283e-08
2.89094e-06
-4.31133e-08
2.91344e-06
-4.35465e-08
2.93613e-06
-4.39291e-08
2.959e-06
-4.42615e-08
2.98201e-06
-4.45443e-08
3.00514e-06
-4.47781e-08
3.02837e-06
-4.4963e-08
3.05167e-06
-4.50992e-08
3.07501e-06
-4.51869e-08
3.09837e-06
-4.52259e-08
3.12173e-06
-4.5216e-08
3.14505e-06
-4.5157e-08
3.16832e-06
-4.50485e-08
3.1915e-06
-4.48898e-08
3.21458e-06
-4.46804e-08
3.23752e-06
-4.44192e-08
3.26029e-06
-4.41052e-08
3.28288e-06
-4.37371e-08
3.30524e-06
-4.33134e-08
3.32736e-06
-4.28323e-08
3.3492e-06
-4.22916e-08
3.37072e-06
-4.16888e-08
3.3919e-06
-4.1021e-08
3.4127e-06
-4.02846e-08
3.43308e-06
-3.94757e-08
3.453e-06
-3.85894e-08
3.47242e-06
-3.76202e-08
3.49129e-06
-3.65615e-08
3.50957e-06
-3.54055e-08
3.52719e-06
-3.41429e-08
3.54411e-06
-3.27627e-08
3.56024e-06
-3.12521e-08
3.57552e-06
-2.9595e-08
3.58987e-06
-2.77727e-08
3.60318e-06
-2.57622e-08
3.61534e-06
-2.35352e-08
3.62624e-06
-2.1057e-08
3.63571e-06
-1.82847e-08
3.64359e-06
-1.5164e-08
3.64966e-06
-1.16266e-08
3.65368e-06
-7.58451e-09
3.65532e-06
-2.924e-09
3.65422e-06
2.50479e-09
3.64989e-06
8.90492e-09
3.64173e-06
1.65547e-08
3.62895e-06
2.58414e-08
3.61053e-06
3.73151e-08
3.58509e-06
5.17733e-08
3.55079e-06
7.0395e-08
3.50511e-06
9.49552e-08
3.44463e-06
1.28158e-07
3.36483e-06
1.74112e-07
3.26016e-06
2.38955e-07
3.12549e-06
3.31644e-07
2.96412e-06
4.62932e-07
6.275e-07
2.8393e-06
2.66684e-06
-7.1143e-09
2.67148e-06
-1.31443e-08
2.67801e-06
-1.84204e-08
2.68618e-06
-2.30536e-08
2.69583e-06
-2.71988e-08
2.70682e-06
-3.09459e-08
2.71902e-06
-3.4356e-08
2.73234e-06
-3.74779e-08
2.74667e-06
-4.03491e-08
2.76195e-06
-4.29994e-08
2.7781e-06
-4.5453e-08
2.79506e-06
-4.77298e-08
2.81278e-06
-4.98461e-08
2.83119e-06
-5.18156e-08
2.85025e-06
-5.36498e-08
2.86993e-06
-5.53585e-08
2.89017e-06
-5.69497e-08
2.91093e-06
-5.84304e-08
2.93218e-06
-5.98066e-08
2.95389e-06
-6.10831e-08
2.97601e-06
-6.22644e-08
2.99852e-06
-6.3354e-08
3.02138e-06
-6.43551e-08
3.04457e-06
-6.52702e-08
3.06806e-06
-6.61017e-08
3.0918e-06
-6.68514e-08
3.11579e-06
-6.75209e-08
3.13998e-06
-6.81115e-08
3.16435e-06
-6.86243e-08
3.18887e-06
-6.90601e-08
3.21353e-06
-6.94195e-08
3.23827e-06
-6.97031e-08
3.2631e-06
-6.99111e-08
3.28796e-06
-7.00436e-08
3.31284e-06
-7.01005e-08
3.33772e-06
-7.00816e-08
3.36256e-06
-6.99864e-08
3.38733e-06
-6.98143e-08
3.41201e-06
-6.95644e-08
3.43658e-06
-6.92357e-08
3.46099e-06
-6.88268e-08
3.48523e-06
-6.8336e-08
3.50926e-06
-6.77613e-08
3.53306e-06
-6.71006e-08
3.55658e-06
-6.63509e-08
3.57981e-06
-6.55089e-08
3.60269e-06
-6.45709e-08
3.62521e-06
-6.35324e-08
3.64732e-06
-6.2388e-08
3.66898e-06
-6.11317e-08
3.69016e-06
-5.97561e-08
3.71079e-06
-5.82528e-08
3.73085e-06
-5.66117e-08
3.75027e-06
-5.48212e-08
3.769e-06
-5.28672e-08
3.78697e-06
-5.07333e-08
3.80413e-06
-4.83997e-08
3.82038e-06
-4.5843e-08
3.83564e-06
-4.30349e-08
3.84983e-06
-3.9941e-08
3.86282e-06
-3.65197e-08
3.87448e-06
-3.272e-08
3.88468e-06
-2.84785e-08
3.89323e-06
-2.37168e-08
3.89995e-06
-1.83357e-08
3.90457e-06
-1.22098e-08
3.90683e-06
-5.17796e-09
3.90637e-06
2.96797e-09
3.90277e-06
1.25039e-08
3.89553e-06
2.37996e-08
3.88402e-06
3.73563e-08
3.86747e-06
5.38616e-08
3.84498e-06
7.42686e-08
3.81546e-06
9.99106e-08
3.77776e-06
1.32657e-07
3.73082e-06
1.75106e-07
3.67419e-06
2.30744e-07
3.60925e-06
3.03888e-07
3.54208e-06
3.98817e-07
3.48937e-06
5.1565e-07
6.36058e-07
3.48081e-06
2.85354e-06
-9.65514e-09
2.85843e-06
-1.80324e-08
2.86533e-06
-2.53165e-08
2.874e-06
-3.17201e-08
2.88425e-06
-3.74467e-08
2.89592e-06
-4.26211e-08
2.9089e-06
-4.73292e-08
2.92307e-06
-5.16383e-08
2.93832e-06
-5.56006e-08
2.95459e-06
-5.92573e-08
2.97178e-06
-6.26419e-08
2.98984e-06
-6.57819e-08
3.0087e-06
-6.87e-08
3.02831e-06
-7.14151e-08
3.04861e-06
-7.39432e-08
3.06956e-06
-7.62976e-08
3.0911e-06
-7.84896e-08
3.11321e-06
-8.05288e-08
3.13584e-06
-8.24235e-08
3.15894e-06
-8.41805e-08
3.18249e-06
-8.58058e-08
3.20645e-06
-8.73043e-08
3.23079e-06
-8.86804e-08
3.25546e-06
-8.99378e-08
3.28045e-06
-9.10795e-08
3.30572e-06
-9.21081e-08
3.33123e-06
-9.30259e-08
3.35697e-06
-9.38346e-08
3.38289e-06
-9.45358e-08
3.40897e-06
-9.51306e-08
3.43518e-06
-9.562e-08
3.46149e-06
-9.60045e-08
3.48787e-06
-9.62847e-08
3.5143e-06
-9.64606e-08
3.54074e-06
-9.65321e-08
3.56717e-06
-9.6499e-08
3.59355e-06
-9.63606e-08
3.61986e-06
-9.61161e-08
3.64607e-06
-9.57643e-08
3.67215e-06
-9.53038e-08
3.69806e-06
-9.47327e-08
3.72378e-06
-9.4049e-08
3.74928e-06
-9.32498e-08
3.77452e-06
-9.2332e-08
3.79947e-06
-9.1292e-08
3.82409e-06
-9.01252e-08
3.84835e-06
-8.88267e-08
3.87222e-06
-8.73902e-08
3.89564e-06
-8.58088e-08
3.91859e-06
-8.40742e-08
3.94102e-06
-8.21767e-08
3.96288e-06
-8.01049e-08
3.98412e-06
-7.78456e-08
4.00468e-06
-7.53831e-08
4.02452e-06
-7.2699e-08
4.04356e-06
-6.97715e-08
4.06174e-06
-6.65747e-08
4.07898e-06
-6.30778e-08
4.0952e-06
-5.92438e-08
4.11029e-06
-5.50285e-08
4.12415e-06
-5.0378e-08
4.13666e-06
-4.52271e-08
4.14768e-06
-3.94957e-08
4.15705e-06
-3.3085e-08
4.16459e-06
-2.58721e-08
4.17009e-06
-1.77034e-08
4.1733e-06
-8.38489e-09
4.17394e-06
2.32789e-09
4.17169e-06
1.47523e-08
4.1662e-06
2.92945e-08
4.15707e-06
4.64916e-08
4.14389e-06
6.70454e-08
4.12628e-06
9.18751e-08
4.10402e-06
1.22179e-07
4.07718e-06
1.59492e-07
4.04658e-06
2.05712e-07
4.01433e-06
2.62994e-07
3.9849e-06
3.33316e-07
3.96647e-06
4.17251e-07
3.97123e-06
5.10889e-07
5.99475e-07
4.00782e-06
3.05331e-06
-1.22725e-08
3.05843e-06
-2.31575e-08
3.0657e-06
-3.25825e-08
3.07486e-06
-4.08801e-08
3.08572e-06
-4.82986e-08
3.0981e-06
-5.49993e-08
3.11187e-06
-6.10945e-08
3.12691e-06
-6.66714e-08
3.14311e-06
-7.17982e-08
3.16039e-06
-7.65283e-08
3.17865e-06
-8.09054e-08
3.19784e-06
-8.4965e-08
3.21789e-06
-8.87367e-08
3.23873e-06
-9.22451e-08
3.2603e-06
-9.55108e-08
3.28256e-06
-9.85512e-08
3.30546e-06
-1.01381e-07
3.32896e-06
-1.04013e-07
3.353e-06
-1.06457e-07
3.37755e-06
-1.08722e-07
3.40257e-06
-1.10817e-07
3.42802e-06
-1.12747e-07
3.45387e-06
-1.14518e-07
3.48008e-06
-1.16136e-07
3.50662e-06
-1.17603e-07
3.53344e-06
-1.18924e-07
3.56053e-06
-1.20101e-07
3.58784e-06
-1.21137e-07
3.61535e-06
-1.22034e-07
3.64302e-06
-1.22792e-07
3.67083e-06
-1.23414e-07
3.69873e-06
-1.239e-07
3.72671e-06
-1.24251e-07
3.75473e-06
-1.24467e-07
3.78275e-06
-1.24548e-07
3.81076e-06
-1.24494e-07
3.83871e-06
-1.24303e-07
3.86658e-06
-1.23975e-07
3.89433e-06
-1.23509e-07
3.92194e-06
-1.22901e-07
3.94937e-06
-1.22152e-07
3.97658e-06
-1.21256e-07
4.00355e-06
-1.20212e-07
4.03025e-06
-1.19016e-07
4.05662e-06
-1.17662e-07
4.08265e-06
-1.16145e-07
4.10829e-06
-1.14458e-07
4.1335e-06
-1.12595e-07
4.15825e-06
-1.10547e-07
4.18248e-06
-1.08302e-07
4.20616e-06
-1.0585e-07
4.22924e-06
-1.03176e-07
4.25166e-06
-1.00263e-07
4.27338e-06
-9.70936e-08
4.29433e-06
-9.36441e-08
4.31445e-06
-8.98882e-08
4.33368e-06
-8.57946e-08
4.35193e-06
-8.13262e-08
4.36913e-06
-7.6439e-08
4.38518e-06
-7.10804e-08
4.4e-06
-6.5187e-08
4.41346e-06
-5.8683e-08
4.42544e-06
-5.14761e-08
4.43581e-06
-4.34543e-08
4.44443e-06
-3.44803e-08
4.45111e-06
-2.43853e-08
4.45569e-06
-1.29606e-08
4.45798e-06
4.43499e-11
4.45777e-06
1.49608e-08
4.4549e-06
3.21659e-08
4.44923e-06
5.21616e-08
4.44072e-06
7.55591e-08
4.42949e-06
1.03105e-07
4.41598e-06
1.35691e-07
4.40114e-06
1.74334e-07
4.38675e-06
2.20104e-07
4.37583e-06
2.73916e-07
4.37307e-06
3.36083e-07
4.38489e-06
4.05425e-07
4.41811e-06
4.77677e-07
5.4326e-07
4.47432e-06
3.26706e-06
-1.49663e-08
3.27241e-06
-2.85116e-08
3.28004e-06
-4.02126e-08
3.2897e-06
-5.05312e-08
3.30116e-06
-5.97573e-08
3.31425e-06
-6.80881e-08
3.32882e-06
-7.56641e-08
3.34475e-06
-8.2594e-08
3.36192e-06
-8.89625e-08
3.38024e-06
-9.48365e-08
3.39961e-06
-1.0027e-07
3.41996e-06
-1.05308e-07
3.44122e-06
-1.09988e-07
3.46332e-06
-1.14339e-07
3.48621e-06
-1.18387e-07
3.50982e-06
-1.22155e-07
3.53411e-06
-1.2566e-07
3.55902e-06
-1.28918e-07
3.58452e-06
-1.31943e-07
3.61055e-06
-1.34745e-07
3.63708e-06
-1.37334e-07
3.66406e-06
-1.39719e-07
3.69146e-06
-1.41905e-07
3.71924e-06
-1.439e-07
3.74735e-06
-1.45708e-07
3.77577e-06
-1.47334e-07
3.80446e-06
-1.4878e-07
3.83339e-06
-1.50051e-07
3.86251e-06
-1.51148e-07
3.89181e-06
-1.52074e-07
3.92123e-06
-1.52829e-07
3.95076e-06
-1.53416e-07
3.98035e-06
-1.53834e-07
4.00998e-06
-1.54085e-07
4.03961e-06
-1.54168e-07
4.06921e-06
-1.54083e-07
4.09875e-06
-1.53828e-07
4.12819e-06
-1.53404e-07
4.15749e-06
-1.52807e-07
4.18664e-06
-1.52037e-07
4.21559e-06
-1.51089e-07
4.2443e-06
-1.49962e-07
4.27275e-06
-1.48651e-07
4.30089e-06
-1.47151e-07
4.3287e-06
-1.45458e-07
4.35612e-06
-1.43563e-07
4.38314e-06
-1.41461e-07
4.40969e-06
-1.39142e-07
4.43575e-06
-1.36595e-07
4.46126e-06
-1.33809e-07
4.48619e-06
-1.3077e-07
4.51048e-06
-1.27461e-07
4.53409e-06
-1.23864e-07
4.55696e-06
-1.19956e-07
4.57903e-06
-1.15711e-07
4.60025e-06
-1.111e-07
4.62054e-06
-1.06086e-07
4.63985e-06
-1.00628e-07
4.65809e-06
-9.46763e-08
4.67519e-06
-8.81732e-08
4.69106e-06
-8.10496e-08
4.7056e-06
-7.32233e-08
4.71873e-06
-6.45966e-08
4.73033e-06
-5.50523e-08
4.7403e-06
-4.44502e-08
4.74854e-06
-3.26218e-08
4.75495e-06
-1.93649e-08
4.75943e-06
-4.43879e-09
4.76195e-06
1.24437e-08
4.76251e-06
3.16111e-08
4.76121e-06
5.34624e-08
4.75832e-06
7.84558e-08
4.75432e-06
1.07102e-07
4.75008e-06
1.3994e-07
4.74693e-06
1.77485e-07
4.7469e-06
2.20127e-07
4.75288e-06
2.67945e-07
4.76857e-06
3.20397e-07
4.79815e-06
3.75842e-07
4.84493e-06
4.30898e-07
4.79909e-07
4.90828e-06
3.49577e-06
-1.77384e-08
3.50135e-06
-3.40889e-08
3.50934e-06
-4.82019e-08
3.51948e-06
-6.06697e-08
3.53155e-06
-7.18223e-08
3.54536e-06
-8.18914e-08
3.56075e-06
-9.10462e-08
3.57758e-06
-9.94179e-08
3.59573e-06
-1.07109e-07
3.6151e-06
-1.142e-07
3.63559e-06
-1.20758e-07
3.65713e-06
-1.26836e-07
3.67963e-06
-1.32478e-07
3.70302e-06
-1.37723e-07
3.72724e-06
-1.42601e-07
3.75224e-06
-1.47138e-07
3.77794e-06
-1.51357e-07
3.80431e-06
-1.55277e-07
3.83129e-06
-1.58913e-07
3.85884e-06
-1.6228e-07
3.88691e-06
-1.65389e-07
3.91545e-06
-1.68249e-07
3.94442e-06
-1.7087e-07
3.97379e-06
-1.73259e-07
4.00352e-06
-1.75421e-07
4.03356e-06
-1.77362e-07
4.06388e-06
-1.79087e-07
4.09444e-06
-1.80598e-07
4.1252e-06
-1.819e-07
4.15614e-06
-1.82994e-07
4.1872e-06
-1.83882e-07
4.21836e-06
-1.84566e-07
4.24959e-06
-1.85047e-07
4.28084e-06
-1.85325e-07
4.31208e-06
-1.854e-07
4.34328e-06
-1.85273e-07
4.37441e-06
-1.84941e-07
4.40542e-06
-1.84404e-07
4.43628e-06
-1.8366e-07
4.46696e-06
-1.82707e-07
4.49743e-06
-1.81541e-07
4.52763e-06
-1.8016e-07
4.55755e-06
-1.78557e-07
4.58714e-06
-1.76729e-07
4.61636e-06
-1.74669e-07
4.64517e-06
-1.7237e-07
4.67354e-06
-1.69822e-07
4.70143e-06
-1.67017e-07
4.72878e-06
-1.63943e-07
4.75557e-06
-1.60585e-07
4.78173e-06
-1.56929e-07
4.80724e-06
-1.52957e-07
4.83203e-06
-1.48647e-07
4.85605e-06
-1.43976e-07
4.87926e-06
-1.38914e-07
4.9016e-06
-1.3343e-07
4.92301e-06
-1.27485e-07
4.94342e-06
-1.21035e-07
4.96278e-06
-1.14028e-07
4.98101e-06
-1.06404e-07
4.99806e-06
-9.80925e-08
5.01385e-06
-8.90107e-08
5.02832e-06
-7.90625e-08
5.04141e-06
-6.8135e-08
5.05306e-06
-5.60967e-08
5.06323e-06
-4.2794e-08
5.07192e-06
-2.80492e-08
5.07914e-06
-1.16582e-08
5.08498e-06
6.60938e-09
5.0896e-06
2.69977e-08
5.09329e-06
4.97767e-08
5.09651e-06
7.52328e-08
5.09997e-06
1.03642e-07
5.10468e-06
1.35237e-07
5.11202e-06
1.70149e-07
5.12382e-06
2.08328e-07
5.14235e-06
2.49418e-07
5.17015e-06
2.92594e-07
5.20964e-06
3.36362e-07
5.26215e-06
3.78385e-07
4.1549e-07
5.32657e-06
3.7405e-06
-2.05921e-08
3.7463e-06
-3.98853e-08
3.75465e-06
-5.65459e-08
3.76527e-06
-7.12911e-08
3.77794e-06
-8.44913e-08
3.79247e-06
-9.64097e-08
3.80867e-06
-1.07244e-07
3.82641e-06
-1.1715e-07
3.84555e-06
-1.26247e-07
3.86599e-06
-1.34632e-07
3.88763e-06
-1.42383e-07
3.91036e-06
-1.49564e-07
3.93412e-06
-1.56227e-07
3.95882e-06
-1.62418e-07
3.98441e-06
-1.68172e-07
4.0108e-06
-1.73522e-07
4.03795e-06
-1.78494e-07
4.06579e-06
-1.83111e-07
4.09428e-06
-1.8739e-07
4.12336e-06
-1.9135e-07
4.15299e-06
-1.95002e-07
4.18311e-06
-1.9836e-07
4.21369e-06
-2.01434e-07
4.24467e-06
-2.04231e-07
4.27602e-06
-2.0676e-07
4.3077e-06
-2.09026e-07
4.33966e-06
-2.11036e-07
4.37187e-06
-2.12793e-07
4.40428e-06
-2.143e-07
4.43686e-06
-2.15562e-07
4.46958e-06
-2.1658e-07
4.50238e-06
-2.17356e-07
4.53524e-06
-2.17892e-07
4.56811e-06
-2.18187e-07
4.60097e-06
-2.18243e-07
4.63377e-06
-2.1806e-07
4.66647e-06
-2.17635e-07
4.69905e-06
-2.16968e-07
4.73146e-06
-2.16058e-07
4.76366e-06
-2.14901e-07
4.79562e-06
-2.13494e-07
4.82731e-06
-2.11833e-07
4.85868e-06
-2.09914e-07
4.88969e-06
-2.07731e-07
4.92031e-06
-2.05277e-07
4.95049e-06
-2.02544e-07
4.9802e-06
-1.99523e-07
5.0094e-06
-1.96203e-07
5.03803e-06
-1.92572e-07
5.06607e-06
-1.88616e-07
5.09347e-06
-1.84317e-07
5.12018e-06
-1.79657e-07
5.14615e-06
-1.74614e-07
5.17134e-06
-1.69162e-07
5.19571e-06
-1.63273e-07
5.2192e-06
-1.56911e-07
5.24176e-06
-1.5004e-07
5.26334e-06
-1.42614e-07
5.2839e-06
-1.34583e-07
5.30339e-06
-1.25888e-07
5.32177e-06
-1.16461e-07
5.33899e-06
-1.06226e-07
5.35502e-06
-9.50951e-08
5.36986e-06
-8.29682e-08
5.3835e-06
-6.97328e-08
5.39597e-06
-5.52626e-08
5.40735e-06
-3.94181e-08
5.41774e-06
-2.20469e-08
5.42734e-06
-2.98618e-09
5.43642e-06
1.7922e-08
5.44538e-06
4.08133e-08
5.4548e-06
6.58179e-08
5.46542e-06
9.30216e-08
5.47823e-06
1.22435e-07
5.49443e-06
1.53952e-07
5.51546e-06
1.87298e-07
5.54291e-06
2.21965e-07
5.57836e-06
2.57153e-07
5.62302e-06
2.91706e-07
5.67728e-06
3.24122e-07
3.52661e-07
5.74011e-06
4.00237e-06
-2.35311e-08
4.00839e-06
-4.58979e-08
4.01708e-06
-6.52405e-08
4.02819e-06
-8.23904e-08
4.04146e-06
-9.77596e-08
4.05669e-06
-1.1164e-07
4.07371e-06
-1.24258e-07
4.09236e-06
-1.35792e-07
4.1125e-06
-1.46381e-07
4.13402e-06
-1.56138e-07
4.1568e-06
-1.65154e-07
4.18074e-06
-1.73502e-07
4.20577e-06
-1.81245e-07
4.2318e-06
-1.88435e-07
4.25875e-06
-1.95115e-07
4.28656e-06
-2.01321e-07
4.31516e-06
-2.07085e-07
4.3445e-06
-2.12433e-07
4.37451e-06
-2.17387e-07
4.40514e-06
-2.21966e-07
4.43633e-06
-2.26186e-07
4.46805e-06
-2.30062e-07
4.50023e-06
-2.33605e-07
4.53284e-06
-2.36825e-07
4.56582e-06
-2.39731e-07
4.59914e-06
-2.42331e-07
4.63275e-06
-2.4463e-07
4.66661e-06
-2.46635e-07
4.70067e-06
-2.48349e-07
4.7349e-06
-2.49775e-07
4.76925e-06
-2.50918e-07
4.80369e-06
-2.51779e-07
4.83817e-06
-2.52359e-07
4.87265e-06
-2.52661e-07
4.90711e-06
-2.52683e-07
4.94149e-06
-2.52427e-07
4.97576e-06
-2.51892e-07
5.00988e-06
-2.51076e-07
5.04381e-06
-2.49977e-07
5.07751e-06
-2.48593e-07
5.11095e-06
-2.4692e-07
5.14409e-06
-2.44956e-07
5.17688e-06
-2.42694e-07
5.20928e-06
-2.40128e-07
5.24127e-06
-2.37252e-07
5.27279e-06
-2.34058e-07
5.30382e-06
-2.30536e-07
5.3343e-06
-2.26675e-07
5.3642e-06
-2.22462e-07
5.39347e-06
-2.17883e-07
5.42209e-06
-2.12921e-07
5.44999e-06
-2.07556e-07
5.47715e-06
-2.01766e-07
5.50353e-06
-1.95527e-07
5.52907e-06
-1.8881e-07
5.55375e-06
-1.81582e-07
5.57752e-06
-1.73806e-07
5.60036e-06
-1.65442e-07
5.62222e-06
-1.5644e-07
5.64309e-06
-1.46749e-07
5.66294e-06
-1.3631e-07
5.68177e-06
-1.25055e-07
5.6996e-06
-1.12913e-07
5.71644e-06
-9.98033e-08
5.73235e-06
-8.56396e-08
5.74742e-06
-7.03306e-08
5.76179e-06
-5.37817e-08
5.77564e-06
-3.5898e-08
5.78925e-06
-1.65888e-08
5.80295e-06
4.22818e-09
5.81717e-06
2.65906e-08
5.8325e-06
5.0494e-08
5.84963e-06
7.58937e-08
5.8694e-06
1.02669e-07
5.89276e-06
1.30597e-07
5.92073e-06
1.5933e-07
5.95432e-06
1.88372e-07
5.99442e-06
2.17063e-07
6.04154e-06
2.44587e-07
6.09565e-06
2.70014e-07
2.92401e-07
6.15591e-06
4.28258e-06
-2.65591e-08
4.28881e-06
-5.21241e-08
4.29785e-06
-7.42816e-08
4.30943e-06
-9.39619e-08
4.32329e-06
-1.11621e-07
4.33923e-06
-1.27576e-07
4.35706e-06
-1.42082e-07
4.37662e-06
-1.55339e-07
4.39775e-06
-1.67509e-07
4.42034e-06
-1.78718e-07
4.44427e-06
-1.8907e-07
4.46943e-06
-1.98652e-07
4.49573e-06
-2.07535e-07
4.52308e-06
-2.15778e-07
4.55141e-06
-2.23432e-07
4.58064e-06
-2.30538e-07
4.6107e-06
-2.37133e-07
4.64152e-06
-2.43247e-07
4.67306e-06
-2.48905e-07
4.70523e-06
-2.5413e-07
4.738e-06
-2.5894e-07
4.77131e-06
-2.63353e-07
4.8051e-06
-2.67381e-07
4.83932e-06
-2.71036e-07
4.87394e-06
-2.74329e-07
4.90889e-06
-2.77268e-07
4.94413e-06
-2.79861e-07
4.97963e-06
-2.82113e-07
5.01532e-06
-2.84031e-07
5.05118e-06
-2.85617e-07
5.08715e-06
-2.86877e-07
5.1232e-06
-2.87813e-07
5.15928e-06
-2.88426e-07
5.19536e-06
-2.88719e-07
5.23138e-06
-2.88692e-07
5.26731e-06
-2.88345e-07
5.30311e-06
-2.87679e-07
5.33874e-06
-2.86691e-07
5.37416e-06
-2.85381e-07
5.40933e-06
-2.83746e-07
5.4442e-06
-2.81783e-07
5.47875e-06
-2.79488e-07
5.51292e-06
-2.76856e-07
5.54669e-06
-2.73881e-07
5.58e-06
-2.70557e-07
5.61283e-06
-2.66875e-07
5.64513e-06
-2.62827e-07
5.67687e-06
-2.58401e-07
5.708e-06
-2.53585e-07
5.73849e-06
-2.48365e-07
5.76831e-06
-2.42724e-07
5.79741e-06
-2.36645e-07
5.82575e-06
-2.30106e-07
5.85332e-06
-2.23085e-07
5.88007e-06
-2.15554e-07
5.90598e-06
-2.07485e-07
5.93103e-06
-1.98845e-07
5.95519e-06
-1.89597e-07
5.97846e-06
-1.79702e-07
6.00083e-06
-1.69114e-07
6.02232e-06
-1.57788e-07
6.04294e-06
-1.45672e-07
6.06274e-06
-1.32712e-07
6.0818e-06
-1.18853e-07
6.1002e-06
-1.04038e-07
6.11809e-06
-8.82132e-08
6.13564e-06
-7.13296e-08
6.15309e-06
-5.33463e-08
6.17074e-06
-3.42359e-08
6.18896e-06
-1.39865e-08
6.20817e-06
7.38411e-09
6.22887e-06
2.97949e-08
6.25166e-06
5.31102e-08
6.27718e-06
7.715e-08
6.30612e-06
1.0166e-07
6.33915e-06
1.26306e-07
6.37685e-06
1.5067e-07
6.41966e-06
1.74259e-07
6.46772e-06
1.96525e-07
6.52083e-06
2.16906e-07
2.34893e-07
6.57835e-06
4.58241e-06
-2.96792e-08
4.58885e-06
-5.85617e-08
4.59823e-06
-8.36641e-08
4.61027e-06
-1.05998e-07
4.62472e-06
-1.26066e-07
4.64136e-06
-1.44209e-07
4.65999e-06
-1.60706e-07
4.68044e-06
-1.75784e-07
4.70256e-06
-1.89621e-07
4.72621e-06
-2.02362e-07
4.75128e-06
-2.14125e-07
4.77764e-06
-2.25007e-07
4.80521e-06
-2.35089e-07
4.83388e-06
-2.44439e-07
4.86358e-06
-2.53115e-07
4.89422e-06
-2.61165e-07
4.92572e-06
-2.68628e-07
4.95803e-06
-2.75541e-07
4.99108e-06
-2.81933e-07
5.02479e-06
-2.8783e-07
5.05912e-06
-2.93251e-07
5.094e-06
-2.98218e-07
5.12938e-06
-3.02745e-07
5.1652e-06
-3.06845e-07
5.20142e-06
-3.10532e-07
5.23798e-06
-3.13814e-07
5.27484e-06
-3.16701e-07
5.31194e-06
-3.192e-07
5.34924e-06
-3.21316e-07
5.3867e-06
-3.23056e-07
5.42426e-06
-3.24423e-07
5.46189e-06
-3.25421e-07
5.49953e-06
-3.26053e-07
5.53714e-06
-3.26321e-07
5.57469e-06
-3.26225e-07
5.61213e-06
-3.25768e-07
5.64942e-06
-3.24949e-07
5.68651e-06
-3.23767e-07
5.72336e-06
-3.22221e-07
5.75994e-06
-3.2031e-07
5.7962e-06
-3.1803e-07
5.8321e-06
-3.15378e-07
5.86761e-06
-3.12349e-07
5.90268e-06
-3.08939e-07
5.93728e-06
-3.05142e-07
5.97136e-06
-3.00949e-07
6.0049e-06
-2.96352e-07
6.03785e-06
-2.91342e-07
6.07018e-06
-2.85907e-07
6.10186e-06
-2.80034e-07
6.13286e-06
-2.73709e-07
6.16314e-06
-2.66915e-07
6.19268e-06
-2.59635e-07
6.22145e-06
-2.51849e-07
6.24944e-06
-2.43533e-07
6.27662e-06
-2.34665e-07
6.303e-06
-2.25216e-07
6.32857e-06
-2.15159e-07
6.35334e-06
-2.04463e-07
6.37733e-06
-1.93097e-07
6.40058e-06
-1.81027e-07
6.42313e-06
-1.6822e-07
6.44507e-06
-1.54643e-07
6.46649e-06
-1.40266e-07
6.48752e-06
-1.25064e-07
6.50833e-06
-1.09017e-07
6.52912e-06
-9.21147e-08
6.55014e-06
-7.43622e-08
6.57169e-06
-5.57807e-08
6.59412e-06
-3.64122e-08
6.61782e-06
-1.63186e-08
6.64322e-06
4.40352e-09
6.67074e-06
2.5594e-08
6.70085e-06
4.70407e-08
6.73401e-06
6.85036e-08
6.77062e-06
8.97005e-08
6.81098e-06
1.10309e-07
6.85526e-06
1.29983e-07
6.90342e-06
1.48364e-07
6.95521e-06
1.6512e-07
1.79981e-07
7.01013e-06
4.90322e-06
-3.28931e-08
4.90987e-06
-6.52075e-08
4.91959e-06
-9.3381e-08
4.93209e-06
-1.1849e-07
4.94711e-06
-1.41082e-07
4.96443e-06
-1.61523e-07
4.98385e-06
-1.80116e-07
5.00518e-06
-1.97109e-07
5.02827e-06
-2.12701e-07
5.05297e-06
-2.27054e-07
5.07915e-06
-2.40299e-07
5.1067e-06
-2.52547e-07
5.13551e-06
-2.63888e-07
5.16549e-06
-2.74399e-07
5.19653e-06
-2.84144e-07
5.22856e-06
-2.93179e-07
5.26149e-06
-3.01549e-07
5.29526e-06
-3.09293e-07
5.32979e-06
-3.16447e-07
5.36501e-06
-3.23037e-07
5.40086e-06
-3.2909e-07
5.43729e-06
-3.34626e-07
5.47422e-06
-3.39663e-07
5.51161e-06
-3.44217e-07
5.5494e-06
-3.48302e-07
5.58753e-06
-3.51929e-07
5.62596e-06
-3.55109e-07
5.66462e-06
-3.57849e-07
5.70348e-06
-3.60157e-07
5.74248e-06
-3.6204e-07
5.78158e-06
-3.63502e-07
5.82072e-06
-3.64548e-07
5.85987e-06
-3.65181e-07
5.89897e-06
-3.65405e-07
5.93798e-06
-3.65221e-07
5.97686e-06
-3.64631e-07
6.01556e-06
-3.63636e-07
6.05405e-06
-3.62235e-07
6.09227e-06
-3.60428e-07
6.13019e-06
-3.58215e-07
6.16777e-06
-3.55592e-07
6.20496e-06
-3.52557e-07
6.24173e-06
-3.49108e-07
6.27805e-06
-3.45238e-07
6.31386e-06
-3.40944e-07
6.34915e-06
-3.3622e-07
6.38387e-06
-3.31058e-07
6.41799e-06
-3.25449e-07
6.45148e-06
-3.19385e-07
6.48431e-06
-3.12856e-07
6.51646e-06
-3.05849e-07
6.54791e-06
-2.98351e-07
6.57863e-06
-2.90349e-07
6.60862e-06
-2.81827e-07
6.63787e-06
-2.72768e-07
6.66637e-06
-2.63155e-07
6.69413e-06
-2.52969e-07
6.72117e-06
-2.42191e-07
6.74752e-06
-2.30803e-07
6.77321e-06
-2.18785e-07
6.79831e-06
-2.0612e-07
6.82289e-06
-1.92794e-07
6.84705e-06
-1.78795e-07
6.87091e-06
-1.64116e-07
6.89461e-06
-1.48758e-07
6.91833e-06
-1.32731e-07
6.94227e-06
-1.16056e-07
6.96669e-06
-9.87704e-08
6.99184e-06
-8.0927e-08
7.01803e-06
-6.2599e-08
7.0456e-06
-4.388e-08
7.07488e-06
-2.48815e-08
7.10622e-06
-5.73283e-09
7.13988e-06
1.33835e-08
7.17613e-06
3.22544e-08
7.21519e-06
5.06434e-08
7.25719e-06
6.83155e-08
7.30214e-06
8.50363e-08
7.34992e-06
1.00579e-07
7.4003e-06
1.14748e-07
1.27406e-07
7.45288e-06
5.2465e-06
-3.62013e-08
5.25335e-06
-7.20564e-08
5.2634e-06
-1.03423e-07
5.27634e-06
-1.31423e-07
5.29191e-06
-1.56653e-07
5.3099e-06
-1.795e-07
5.33007e-06
-2.00288e-07
5.35226e-06
-2.19289e-07
5.37629e-06
-2.36721e-07
5.40201e-06
-2.52764e-07
5.42929e-06
-2.67564e-07
5.458e-06
-2.81241e-07
5.48802e-06
-2.93899e-07
5.51926e-06
-3.05622e-07
5.55161e-06
-3.16483e-07
5.58499e-06
-3.26543e-07
5.61931e-06
-3.35854e-07
5.65449e-06
-3.44461e-07
5.69046e-06
-3.52401e-07
5.72715e-06
-3.59707e-07
5.76449e-06
-3.66407e-07
5.8024e-06
-3.72526e-07
5.84084e-06
-3.78082e-07
5.87974e-06
-3.83096e-07
5.91903e-06
-3.87581e-07
5.95867e-06
-3.91552e-07
5.9986e-06
-3.95019e-07
6.03877e-06
-3.97994e-07
6.07911e-06
-4.00484e-07
6.11959e-06
-4.02497e-07
6.16014e-06
-4.04039e-07
6.20073e-06
-4.05116e-07
6.2413e-06
-4.05732e-07
6.2818e-06
-4.05891e-07
6.3222e-06
-4.05596e-07
6.36243e-06
-4.0485e-07
6.40247e-06
-4.03654e-07
6.44226e-06
-4.02009e-07
6.48176e-06
-3.99916e-07
6.52094e-06
-3.97374e-07
6.55975e-06
-3.94384e-07
6.59815e-06
-3.90942e-07
6.6361e-06
-3.87048e-07
6.67358e-06
-3.82698e-07
6.71054e-06
-3.77889e-07
6.74695e-06
-3.72617e-07
6.78278e-06
-3.66877e-07
6.81801e-06
-3.60663e-07
6.85261e-06
-3.53968e-07
6.88655e-06
-3.46786e-07
6.91982e-06
-3.39109e-07
6.95241e-06
-3.30928e-07
6.9843e-06
-3.22234e-07
7.0155e-06
-3.13017e-07
7.04601e-06
-3.03268e-07
7.07585e-06
-2.92976e-07
7.10502e-06
-2.82134e-07
7.13357e-06
-2.70733e-07
7.16154e-06
-2.58764e-07
7.18899e-06
-2.46225e-07
7.21599e-06
-2.33112e-07
7.24263e-06
-2.19428e-07
7.26902e-06
-2.0518e-07
7.2953e-06
-1.90382e-07
7.3216e-06
-1.75055e-07
7.34811e-06
-1.59231e-07
7.37501e-06
-1.42954e-07
7.40252e-06
-1.26278e-07
7.43087e-06
-1.09273e-07
7.46031e-06
-9.20272e-08
7.49107e-06
-7.46402e-08
7.52343e-06
-5.72286e-08
7.55762e-06
-3.99205e-08
7.59385e-06
-2.28443e-08
7.63226e-06
-6.14812e-09
7.67291e-06
9.99713e-09
7.71581e-06
2.54176e-08
7.7609e-06
3.99494e-08
7.80804e-06
5.34431e-08
7.857e-06
6.57871e-08
7.69172e-08
7.90749e-06
5.61381e-06
-3.96022e-08
5.62086e-06
-7.91012e-08
5.63122e-06
-1.13775e-07
5.64458e-06
-1.4478e-07
5.66068e-06
-1.72755e-07
5.6793e-06
-1.9811e-07
5.70021e-06
-2.2119e-07
5.72322e-06
-2.42289e-07
5.74815e-06
-2.61645e-07
5.77486e-06
-2.79454e-07
5.80318e-06
-2.95875e-07
5.83299e-06
-3.11044e-07
5.86418e-06
-3.25074e-07
5.89663e-06
-3.38058e-07
5.93024e-06
-3.50078e-07
5.96492e-06
-3.61201e-07
6.00057e-06
-3.71486e-07
6.0371e-06
-3.80982e-07
6.07445e-06
-3.89732e-07
6.11254e-06
-3.97772e-07
6.15128e-06
-4.05133e-07
6.19062e-06
-4.11844e-07
6.23048e-06
-4.17926e-07
6.2708e-06
-4.23401e-07
6.31153e-06
-4.28285e-07
6.35259e-06
-4.32595e-07
6.39394e-06
-4.36344e-07
6.43551e-06
-4.39542e-07
6.47724e-06
-4.42201e-07
6.5191e-06
-4.44329e-07
6.56101e-06
-4.45934e-07
6.60294e-06
-4.47023e-07
6.64483e-06
-4.47601e-07
6.68663e-06
-4.47673e-07
6.72829e-06
-4.47243e-07
6.76978e-06
-4.46316e-07
6.81104e-06
-4.44894e-07
6.85203e-06
-4.4298e-07
6.8927e-06
-4.40575e-07
6.93303e-06
-4.37681e-07
6.97296e-06
-4.34298e-07
7.01246e-06
-4.30427e-07
7.0515e-06
-4.26068e-07
7.09004e-06
-4.2122e-07
7.12804e-06
-4.15881e-07
7.16549e-06
-4.10051e-07
7.20236e-06
-4.03727e-07
7.23862e-06
-3.96906e-07
7.27425e-06
-3.89587e-07
7.30924e-06
-3.81765e-07
7.34358e-06
-3.73438e-07
7.37727e-06
-3.64602e-07
7.4103e-06
-3.55255e-07
7.44269e-06
-3.45394e-07
7.47445e-06
-3.35016e-07
7.50561e-06
-3.24121e-07
7.5362e-06
-3.12709e-07
7.56626e-06
-3.00783e-07
7.59585e-06
-2.88347e-07
7.62504e-06
-2.75409e-07
7.65392e-06
-2.61981e-07
7.68258e-06
-2.4808e-07
7.71113e-06
-2.33727e-07
7.73971e-06
-2.18953e-07
7.76846e-06
-2.03794e-07
7.79753e-06
-1.88294e-07
7.82709e-06
-1.72509e-07
7.85732e-06
-1.56503e-07
7.88841e-06
-1.40352e-07
7.92053e-06
-1.24141e-07
7.95386e-06
-1.07967e-07
7.98857e-06
-9.19332e-08
8.0248e-06
-7.61506e-08
8.0627e-06
-6.0733e-08
8.10235e-06
-4.57954e-08
8.14379e-06
-3.14391e-08
8.18698e-06
-1.7766e-08
8.23181e-06
-4.87577e-09
8.27811e-06
7.13961e-09
8.3257e-06
1.82103e-08
2.83037e-08
8.37431e-06
6.00684e-06
-4.30919e-08
6.01407e-06
-8.63312e-08
6.02472e-06
-1.24419e-07
6.03847e-06
-1.58535e-07
6.05508e-06
-1.89355e-07
6.0743e-06
-2.17316e-07
6.09589e-06
-2.42781e-07
6.11968e-06
-2.66062e-07
6.14546e-06
-2.8742e-07
6.17309e-06
-3.07065e-07
6.2024e-06
-3.25173e-07
6.23326e-06
-3.41892e-07
6.26554e-06
-3.57345e-07
6.29914e-06
-3.71636e-07
6.33393e-06
-3.84854e-07
6.36982e-06
-3.97074e-07
6.40671e-06
-4.08362e-07
6.44452e-06
-4.18771e-07
6.48316e-06
-4.28349e-07
6.52254e-06
-4.37138e-07
6.5626e-06
-4.45171e-07
6.60326e-06
-4.52479e-07
6.64444e-06
-4.5909e-07
6.68609e-06
-4.65024e-07
6.72813e-06
-4.70304e-07
6.7705e-06
-4.74945e-07
6.81314e-06
-4.78964e-07
6.85599e-06
-4.82374e-07
6.899e-06
-4.85186e-07
6.9421e-06
-4.87411e-07
6.98525e-06
-4.89059e-07
7.02839e-06
-4.90138e-07
7.07146e-06
-4.90654e-07
7.11443e-06
-4.90615e-07
7.15723e-06
-4.90026e-07
7.19983e-06
-4.88893e-07
7.24217e-06
-4.87219e-07
7.28422e-06
-4.8501e-07
7.32594e-06
-4.82269e-07
7.36727e-06
-4.78999e-07
7.4082e-06
-4.75203e-07
7.44867e-06
-4.70883e-07
7.48866e-06
-4.66042e-07
7.52814e-06
-4.60682e-07
7.56708e-06
-4.54804e-07
7.60546e-06
-4.48411e-07