/*--------------------------------*- C++ -*----------------------------------*\
| =========                 |                                                 |
| \\      /  F ield         | OpenFOAM: The Open Source CFD Toolbox           |
|  \\    /   O peration     | Version:  2112                                  |
|   \\  /    A nd           | Website:  www.openfoam.com                      |
|    \\/     M anipulation  |                                                 |
\*---------------------------------------------------------------------------*/
FoamFile
{
    version     2.0;
    format      ascii;
    arch        "LSB;label=32;scalar=64";
    class       volScalarField;
    location    "5";
    object      T;
}
// * * * * * * * * * * * * * * * * * * * * * * * * * * * * * * * * * * * * * //

dimensions      [0 0 0 1 0 0 0];

internalField   nonuniform List<scalar> 
12013
(
300.003
300.009
300.016
300.022
300.029
300.036
300.044
300.052
300.06
300.069
300.078
300.087
300.097
300.107
300.117
300.128
300.14
300.151
300.164
300.176
300.19
300.203
300.218
300.232
300.248
300.263
300.28
300.297
300.314
300.332
300.351
300.37
300.39
300.411
300.432
300.454
300.477
300.5
300.524
300.549
300.574
300.6
300.627
300.655
300.683
300.712
300.742
300.773
300.805
300.838
300.872
300.906
300.942
300.978
301.016
301.054
301.094
301.135
301.177
301.22
301.264
301.31
301.357
301.405
301.455
301.507
301.56
301.615
301.672
301.731
301.793
301.856
301.923
301.993
302.066
302.143
302.225
302.313
302.409
302.515
302.638
300.003
300.009
300.016
300.022
300.029
300.036
300.044
300.052
300.06
300.069
300.078
300.087
300.097
300.107
300.117
300.128
300.14
300.151
300.164
300.176
300.19
300.203
300.218
300.232
300.248
300.263
300.28
300.297
300.314
300.332
300.351
300.37
300.39
300.411
300.432
300.454
300.477
300.5
300.524
300.548
300.574
300.6
300.627
300.655
300.683
300.712
300.742
300.773
300.805
300.838
300.871
300.906
300.942
300.978
301.016
301.054
301.094
301.134
301.176
301.219
301.264
301.309
301.356
301.405
301.455
301.506
301.559
301.614
301.671
301.73
301.791
301.855
301.921
301.99
302.063
302.139
302.22
302.306
302.399
302.5
302.609
300.003
300.009
300.016
300.022
300.029
300.036
300.044
300.052
300.06
300.069
300.078
300.087
300.097
300.107
300.117
300.128
300.139
300.151
300.164
300.176
300.19
300.203
300.218
300.232
300.248
300.263
300.28
300.297
300.314
300.332
300.351
300.37
300.39
300.411
300.432
300.454
300.477
300.5
300.524
300.548
300.574
300.6
300.627
300.654
300.683
300.712
300.742
300.773
300.805
300.838
300.871
300.906
300.941
300.978
301.015
301.054
301.093
301.134
301.176
301.219
301.263
301.308
301.355
301.404
301.453
301.505
301.558
301.612
301.669
301.727
301.788
301.851
301.917
301.985
302.056
302.131
302.21
302.293
302.381
302.474
302.571
300.003
300.009
300.016
300.022
300.029
300.036
300.044
300.052
300.06
300.069
300.078
300.087
300.097
300.107
300.117
300.128
300.139
300.151
300.164
300.176
300.19
300.203
300.218
300.232
300.248
300.263
300.28
300.297
300.314
300.332
300.351
300.37
300.39
300.411
300.432
300.454
300.476
300.5
300.523
300.548
300.573
300.6
300.626
300.654
300.682
300.712
300.742
300.773
300.804
300.837
300.871
300.905
300.94
300.977
301.014
301.053
301.092
301.133
301.174
301.217
301.261
301.307
301.353
301.402
301.451
301.502
301.555
301.609
301.665
301.723
301.783
301.845
301.91
301.977
302.046
302.119
302.195
302.274
302.356
302.441
302.527
300.003
300.009
300.015
300.022
300.029
300.036
300.044
300.052
300.06
300.069
300.078
300.087
300.097
300.107
300.117
300.128
300.139
300.151
300.164
300.176
300.19
300.203
300.217
300.232
300.247
300.263
300.28
300.297
300.314
300.332
300.351
300.37
300.39
300.411
300.432
300.454
300.476
300.499
300.523
300.548
300.573
300.599
300.626
300.654
300.682
300.711
300.741
300.772
300.804
300.836
300.87
300.904
300.939
300.976
301.013
301.051
301.091
301.131
301.173
301.215
301.259
301.304
301.351
301.398
301.448
301.498
301.55
301.604
301.659
301.716
301.776
301.836
301.9
301.965
302.032
302.102
302.174
302.249
302.325
302.403
302.481
300.003
300.009
300.015
300.022
300.029
300.036
300.044
300.052
300.06
300.069
300.077
300.087
300.096
300.107
300.117
300.128
300.139
300.151
300.163
300.176
300.189
300.203
300.217
300.232
300.247
300.263
300.28
300.296
300.314
300.332
300.351
300.37
300.39
300.41
300.432
300.453
300.476
300.499
300.523
300.547
300.573
300.599
300.626
300.653
300.681
300.71
300.74
300.771
300.803
300.835
300.869
300.903
300.938
300.974
301.011
301.049
301.089
301.129
301.17
301.213
301.256
301.301
301.347
301.394
301.443
301.493
301.544
301.597
301.652
301.708
301.766
301.825
301.886
301.949
302.014
302.081
302.149
302.219
302.29
302.361
302.433
300.003
300.009
300.015
300.022
300.029
300.036
300.044
300.052
300.06
300.069
300.077
300.087
300.096
300.107
300.117
300.128
300.139
300.151
300.163
300.176
300.189
300.203
300.217
300.232
300.247
300.263
300.279
300.296
300.314
300.332
300.35
300.37
300.39
300.41
300.431
300.453
300.475
300.499
300.522
300.547
300.572
300.598
300.625
300.652
300.681
300.71
300.739
300.77
300.802
300.834
300.867
300.901
300.936
300.972
301.009
301.047
301.086
301.126
301.167
301.209
301.252
301.297
301.342
301.389
301.437
301.486
301.537
301.589
301.642
301.697
301.753
301.811
301.87
301.931
301.993
302.056
302.12
302.186
302.252
302.317
302.383
300.003
300.009
300.015
300.022
300.029
300.036
300.044
300.052
300.06
300.068
300.077
300.087
300.096
300.106
300.117
300.128
300.139
300.151
300.163
300.176
300.189
300.203
300.217
300.232
300.247
300.263
300.279
300.296
300.313
300.331
300.35
300.369
300.389
300.41
300.431
300.452
300.475
300.498
300.522
300.546
300.571
300.597
300.624
300.651
300.679
300.708
300.738
300.769
300.8
300.832
300.865
300.899
300.934
300.97
301.006
301.044
301.083
301.122
301.163
301.204
301.247
301.291
301.336
301.382
301.429
301.477
301.527
301.578
301.63
301.683
301.738
301.793
301.85
301.908
301.967
302.027
302.088
302.149
302.21
302.271
302.331
300.003
300.009
300.015
300.022
300.029
300.036
300.044
300.052
300.06
300.068
300.077
300.087
300.096
300.106
300.117
300.128
300.139
300.151
300.163
300.176
300.189
300.203
300.217
300.232
300.247
300.263
300.279
300.296
300.313
300.331
300.35
300.369
300.389
300.409
300.43
300.452
300.474
300.497
300.521
300.545
300.57
300.596
300.623
300.65
300.678
300.707
300.736
300.767
300.798
300.83
300.863
300.896
300.931
300.967
301.003
301.04
301.078
301.117
301.158
301.199
301.241
301.284
301.328
301.373
301.42
301.467
301.515
301.565
301.615
301.667
301.72
301.773
301.828
301.883
301.939
301.995
302.052
302.109
302.166
302.222
302.278
300.003
300.009
300.015
300.022
300.029
300.036
300.044
300.052
300.06
300.068
300.077
300.087
300.096
300.106
300.117
300.128
300.139
300.151
300.163
300.176
300.189
300.203
300.217
300.231
300.247
300.262
300.279
300.295
300.313
300.331
300.349
300.368
300.388
300.408
300.429
300.451
300.473
300.496
300.52
300.544
300.569
300.595
300.621
300.648
300.676
300.705
300.734
300.764
300.795
300.827
300.86
300.893
300.927
300.963
300.999
301.035
301.073
301.112
301.151
301.192
301.233
301.276
301.319
301.363
301.408
301.454
301.501
301.549
301.598
301.648
301.699
301.75
301.802
301.854
301.907
301.96
302.014
302.067
302.12
302.172
302.224
300.003
300.009
300.015
300.022
300.029
300.036
300.044
300.052
300.06
300.068
300.077
300.086
300.096
300.106
300.117
300.128
300.139
300.151
300.163
300.175
300.189
300.202
300.216
300.231
300.246
300.262
300.278
300.295
300.312
300.33
300.349
300.368
300.387
300.408
300.429
300.45
300.472
300.495
300.519
300.543
300.568
300.593
300.619
300.646
300.674
300.703
300.732
300.762
300.792
300.824
300.856
300.889
300.923
300.958
300.993
301.03
301.067
301.105
301.144
301.183
301.224
301.266
301.308
301.351
301.395
301.44
301.485
301.532
301.579
301.626
301.675
301.724
301.773
301.823
301.872
301.922
301.972
302.022
302.071
302.12
302.168
300.003
300.009
300.015
300.022
300.029
300.036
300.044
300.052
300.06
300.068
300.077
300.086
300.096
300.106
300.116
300.127
300.139
300.15
300.163
300.175
300.188
300.202
300.216
300.231
300.246
300.261
300.278
300.294
300.312
300.329
300.348
300.367
300.386
300.407
300.428
300.449
300.471
300.494
300.517
300.541
300.566
300.591
300.617
300.644
300.672
300.7
300.729
300.758
300.789
300.82
300.852
300.884
300.918
300.952
300.987
301.023
301.059
301.097
301.135
301.174
301.213
301.254
301.295
301.337
301.379
301.423
301.467
301.511
301.556
301.602
301.648
301.695
301.741
301.788
301.835
301.882
301.929
301.975
302.021
302.067
302.111
300.003
300.009
300.015
300.022
300.029
300.036
300.044
300.051
300.06
300.068
300.077
300.086
300.096
300.106
300.116
300.127
300.138
300.15
300.162
300.175
300.188
300.202
300.216
300.23
300.245
300.261
300.277
300.294
300.311
300.329
300.347
300.366
300.385
300.406
300.426
300.448
300.469
300.492
300.515
300.539
300.564
300.589
300.615
300.641
300.669
300.696
300.725
300.754
300.784
300.815
300.847
300.879
300.912
300.945
300.98
301.015
301.051
301.087
301.124
301.162
301.201
301.24
301.28
301.321
301.362
301.404
301.446
301.488
301.532
301.575
301.619
301.663
301.707
301.751
301.795
301.839
301.883
301.927
301.97
302.012
302.054
300.003
300.009
300.015
300.022
300.029
300.036
300.044
300.051
300.06
300.068
300.077
300.086
300.096
300.106
300.116
300.127
300.138
300.15
300.162
300.175
300.188
300.201
300.215
300.23
300.245
300.26
300.276
300.293
300.31
300.328
300.346
300.365
300.384
300.404
300.425
300.446
300.468
300.49
300.513
300.537
300.561
300.586
300.612
300.638
300.665
300.692
300.721
300.75
300.779
300.81
300.84
300.872
300.904
300.937
300.971
301.005
301.04
301.076
301.112
301.149
301.187
301.225
301.263
301.302
301.342
301.382
301.422
301.463
301.504
301.546
301.587
301.629
301.671
301.712
301.754
301.795
301.836
301.876
301.916
301.956
301.995
300.003
300.009
300.015
300.022
300.029
300.036
300.043
300.051
300.059
300.068
300.077
300.086
300.095
300.105
300.116
300.127
300.138
300.149
300.161
300.174
300.187
300.201
300.214
300.229
300.244
300.259
300.275
300.292
300.309
300.326
300.345
300.363
300.383
300.402
300.423
300.444
300.465
300.488
300.511
300.534
300.558
300.583
300.608
300.634
300.661
300.688
300.716
300.744
300.773
300.803
300.833
300.864
300.896
300.928
300.961
300.995
301.029
301.063
301.098
301.134
301.17
301.207
301.244
301.282
301.32
301.358
301.397
301.436
301.475
301.514
301.553
301.592
301.632
301.671
301.71
301.748
301.787
301.825
301.862
301.899
301.935
300.003
300.009
300.015
300.022
300.029
300.036
300.043
300.051
300.059
300.068
300.076
300.086
300.095
300.105
300.115
300.126
300.137
300.149
300.161
300.173
300.186
300.2
300.214
300.228
300.243
300.258
300.274
300.291
300.308
300.325
300.343
300.362
300.381
300.4
300.421
300.442
300.463
300.485
300.507
300.531
300.554
300.579
300.604
300.629
300.655
300.682
300.71
300.738
300.766
300.795
300.825
300.855
300.886
300.918
300.95
300.982
301.015
301.049
301.083
301.117
301.152
301.188
301.223
301.259
301.296
301.332
301.369
301.406
301.443
301.48
301.517
301.554
301.591
301.628
301.664
301.7
301.736
301.772
301.807
301.841
301.875
300.003
300.009
300.015
300.022
300.029
300.036
300.043
300.051
300.059
300.067
300.076
300.085
300.095
300.105
300.115
300.126
300.137
300.148
300.16
300.173
300.186
300.199
300.213
300.227
300.242
300.257
300.273
300.289
300.306
300.323
300.341
300.36
300.379
300.398
300.418
300.439
300.46
300.482
300.504
300.527
300.55
300.574
300.599
300.624
300.65
300.676
300.703
300.73
300.758
300.787
300.816
300.845
300.875
300.906
300.937
300.968
301
301.033
301.066
301.099
301.132
301.166
301.2
301.235
301.269
301.304
301.339
301.374
301.409
301.444
301.479
301.514
301.548
301.583
301.617
301.651
301.684
301.717
301.75
301.782
301.814
300.003
300.009
300.015
300.022
300.029
300.036
300.043
300.051
300.059
300.067
300.076
300.085
300.095
300.104
300.115
300.125
300.136
300.148
300.16
300.172
300.185
300.198
300.212
300.226
300.241
300.256
300.272
300.288
300.304
300.321
300.339
300.357
300.376
300.395
300.415
300.436
300.456
300.478
300.5
300.522
300.545
300.569
300.593
300.618
300.643
300.669
300.695
300.722
300.749
300.777
300.805
300.834
300.863
300.893
300.923
300.953
300.984
301.015
301.047
301.078
301.11
301.143
301.175
301.208
301.241
301.274
301.307
301.34
301.373
301.406
301.439
301.471
301.504
301.536
301.568
301.6
301.631
301.662
301.693
301.723
301.752
300.003
300.009
300.015
300.022
300.028
300.035
300.043
300.051
300.059
300.067
300.076
300.085
300.094
300.104
300.114
300.125
300.136
300.147
300.159
300.171
300.184
300.197
300.211
300.225
300.239
300.254
300.27
300.286
300.302
300.319
300.337
300.355
300.373
300.392
300.412
300.432
300.452
300.474
300.495
300.517
300.54
300.563
300.587
300.611
300.635
300.66
300.686
300.712
300.739
300.766
300.793
300.821
300.849
300.878
300.907
300.936
300.966
300.995
301.026
301.056
301.087
301.117
301.148
301.179
301.211
301.242
301.273
301.304
301.335
301.366
301.397
301.428
301.458
301.488
301.518
301.548
301.577
301.606
301.634
301.663
301.69
300.003
300.009
300.015
300.022
300.028
300.035
300.043
300.05
300.058
300.067
300.075
300.084
300.094
300.103
300.113
300.124
300.135
300.146
300.158
300.17
300.183
300.196
300.209
300.223
300.238
300.252
300.268
300.284
300.3
300.317
300.334
300.352
300.37
300.389
300.408
300.428
300.448
300.469
300.49
300.511
300.534
300.556
300.579
300.603
300.627
300.651
300.676
300.701
300.727
300.753
300.78
300.807
300.834
300.861
300.889
300.917
300.946
300.974
301.003
301.032
301.061
301.09
301.12
301.149
301.178
301.208
301.237
301.267
301.296
301.325
301.354
301.382
301.411
301.439
301.467
301.495
301.522
301.549
301.576
301.602
301.628
300.003
300.009
300.015
300.021
300.028
300.035
300.042
300.05
300.058
300.066
300.075
300.084
300.093
300.103
300.113
300.123
300.134
300.145
300.157
300.169
300.181
300.194
300.208
300.221
300.236
300.25
300.266
300.281
300.297
300.314
300.331
300.348
300.366
300.385
300.403
300.423
300.443
300.463
300.484
300.505
300.526
300.548
300.571
300.594
300.617
300.641
300.665
300.689
300.714
300.74
300.765
300.791
300.817
300.843
300.87
300.897
300.924
300.951
300.979
301.006
301.034
301.061
301.089
301.117
301.145
301.172
301.2
301.228
301.255
301.282
301.309
301.336
301.363
301.389
301.415
301.441
301.467
301.492
301.517
301.541
301.565
300.003
300.009
300.015
300.021
300.028
300.035
300.042
300.05
300.058
300.066
300.074
300.083
300.092
300.102
300.112
300.122
300.133
300.144
300.156
300.168
300.18
300.193
300.206
300.219
300.233
300.248
300.263
300.278
300.294
300.31
300.327
300.344
300.362
300.38
300.398
300.417
300.437
300.456
300.477
300.497
300.518
300.54
300.562
300.584
300.606
300.629
300.653
300.676
300.7
300.724
300.749
300.774
300.799
300.824
300.849
300.875
300.901
300.927
300.953
300.979
301.005
301.031
301.057
301.083
301.109
301.136
301.161
301.187
301.213
301.238
301.264
301.289
301.314
301.338
301.363
301.387
301.411
301.434
301.457
301.48
301.503
300.003
300.009
300.015
300.021
300.028
300.035
300.042
300.049
300.057
300.065
300.074
300.082
300.092
300.101
300.111
300.121
300.132
300.143
300.154
300.166
300.178
300.191
300.204
300.217
300.231
300.245
300.26
300.275
300.291
300.307
300.323
300.34
300.357
300.375
300.393
300.411
300.43
300.449
300.469
300.489
300.509
300.53
300.551
300.573
300.595
300.617
300.639
300.662
300.685
300.708
300.732
300.755
300.779
300.803
300.827
300.852
300.876
300.901
300.925
300.95
300.975
300.999
301.024
301.048
301.073
301.097
301.122
301.146
301.17
301.194
301.217
301.241
301.264
301.287
301.31
301.332
301.354
301.376
301.398
301.419
301.44
300.003
300.009
300.015
300.021
300.027
300.034
300.041
300.049
300.057
300.065
300.073
300.082
300.091
300.1
300.11
300.12
300.13
300.141
300.152
300.164
300.176
300.189
300.201
300.215
300.228
300.242
300.257
300.271
300.287
300.302
300.318
300.335
300.351
300.369
300.386
300.404
300.423
300.441
300.46
300.48
300.5
300.52
300.54
300.561
300.582
300.603
300.625
300.646
300.668
300.691
300.713
300.735
300.758
300.781
300.804
300.827
300.85
300.873
300.897
300.92
300.943
300.966
300.989
301.012
301.035
301.058
301.081
301.104
301.126
301.148
301.17
301.192
301.214
301.235
301.256
301.277
301.298
301.318
301.339
301.358
301.378
300.003
300.009
300.015
300.021
300.027
300.034
300.041
300.048
300.056
300.064
300.072
300.081
300.09
300.099
300.109
300.119
300.129
300.14
300.151
300.162
300.174
300.186
300.199
300.212
300.225
300.239
300.253
300.267
300.282
300.297
300.313
300.329
300.345
300.362
300.379
300.397
300.414
300.433
300.451
300.47
300.489
300.508
300.528
300.548
300.568
300.588
300.609
300.63
300.651
300.672
300.693
300.714
300.736
300.758
300.779
300.801
300.823
300.845
300.867
300.889
300.91
300.932
300.954
300.975
300.997
301.018
301.04
301.061
301.082
301.102
301.123
301.143
301.163
301.183
301.203
301.223
301.242
301.261
301.28
301.298
301.316
300.003
300.008
300.014
300.02
300.027
300.034
300.041
300.048
300.055
300.063
300.071
300.08
300.089
300.098
300.107
300.117
300.127
300.138
300.149
300.16
300.171
300.183
300.196
300.208
300.221
300.235
300.249
300.263
300.277
300.292
300.307
300.323
300.339
300.355
300.371
300.388
300.406
300.423
300.441
300.459
300.477
300.496
300.515
300.534
300.553
300.572
300.592
300.612
300.632
300.652
300.672
300.692
300.713
300.733
300.754
300.774
300.795
300.815
300.836
300.856
300.877
300.897
300.917
300.938
300.958
300.978
300.998
301.017
301.037
301.056
301.075
301.094
301.113
301.132
301.15
301.168
301.186
301.204
301.221
301.238
301.255
300.003
300.008
300.014
300.02
300.027
300.033
300.04
300.047
300.055
300.062
300.07
300.079
300.087
300.096
300.106
300.115
300.125
300.136
300.146
300.157
300.169
300.18
300.192
300.205
300.217
300.23
300.244
300.258
300.272
300.286
300.301
300.316
300.331
300.347
300.363
300.379
300.396
300.413
300.43
300.447
300.465
300.482
300.5
300.519
300.537
300.555
300.574
300.593
300.612
300.631
300.65
300.669
300.688
300.708
300.727
300.746
300.766
300.785
300.804
300.823
300.842
300.862
300.881
300.899
300.918
300.937
300.955
300.974
300.992
301.01
301.028
301.045
301.063
301.08
301.097
301.114
301.13
301.147
301.163
301.179
301.195
300.003
300.008
300.014
300.02
300.026
300.033
300.039
300.046
300.054
300.061
300.069
300.077
300.086
300.095
300.104
300.113
300.123
300.133
300.144
300.154
300.165
300.177
300.189
300.201
300.213
300.226
300.239
300.252
300.266
300.28
300.294
300.309
300.323
300.339
300.354
300.37
300.385
300.402
300.418
300.435
300.451
300.468
300.485
300.503
300.52
300.538
300.555
300.573
300.591
300.609
300.627
300.645
300.663
300.681
300.7
300.718
300.736
300.754
300.772
300.79
300.808
300.826
300.843
300.861
300.878
300.896
300.913
300.93
300.947
300.964
300.98
300.997
301.013
301.029
301.045
301.06
301.076
301.091
301.106
301.121
301.135
300.003
300.008
300.014
300.02
300.026
300.032
300.039
300.046
300.053
300.06
300.068
300.076
300.084
300.093
300.102
300.111
300.121
300.131
300.141
300.151
300.162
300.173
300.185
300.196
300.208
300.221
300.233
300.246
300.259
300.273
300.287
300.301
300.315
300.329
300.344
300.359
300.374
300.39
300.405
300.421
300.437
300.453
300.47
300.486
300.503
300.519
300.536
300.553
300.57
300.587
300.604
300.621
300.638
300.655
300.672
300.689
300.706
300.723
300.739
300.756
300.773
300.789
300.806
300.822
300.839
300.855
300.871
300.887
300.902
300.918
300.933
300.948
300.963
300.978
300.993
301.008
301.022
301.036
301.05
301.064
301.077
300.003
300.008
300.013
300.019
300.025
300.032
300.038
300.045
300.052
300.059
300.067
300.075
300.083
300.091
300.1
300.109
300.118
300.128
300.138
300.148
300.158
300.169
300.18
300.192
300.203
300.215
300.227
300.24
300.253
300.266
300.279
300.292
300.306
300.32
300.334
300.348
300.363
300.378
300.392
300.407
300.423
300.438
300.453
300.469
300.485
300.5
300.516
300.532
300.548
300.564
300.58
300.596
300.612
300.628
300.643
300.659
300.675
300.691
300.707
300.722
300.738
300.753
300.769
300.784
300.799
300.814
300.829
300.844
300.858
300.873
300.887
300.901
300.915
300.929
300.943
300.956
300.969
300.982
300.995
301.008
301.021
300.003
300.008
300.013
300.019
300.025
300.031
300.037
300.044
300.051
300.058
300.065
300.073
300.081
300.089
300.098
300.106
300.115
300.125
300.134
300.144
300.154
300.165
300.176
300.187
300.198
300.209
300.221
300.233
300.245
300.258
300.27
300.283
300.296
300.31
300.323
300.337
300.351
300.365
300.379
300.393
300.407
300.422
300.437
300.451
300.466
300.481
300.496
300.511
300.526
300.541
300.555
300.57
300.585
300.6
300.615
300.63
300.645
300.66
300.674
300.689
300.703
300.718
300.732
300.746
300.76
300.774
300.788
300.802
300.815
300.829
300.842
300.855
300.868
300.881
300.893
300.906
300.918
300.93
300.942
300.954
300.966
300.002
300.008
300.013
300.018
300.024
300.03
300.036
300.043
300.05
300.057
300.064
300.071
300.079
300.087
300.095
300.104
300.113
300.122
300.131
300.14
300.15
300.16
300.171
300.181
300.192
300.203
300.214
300.226
300.238
300.25
300.262
300.274
300.287
300.299
300.312
300.325
300.338
300.352
300.365
300.378
300.392
300.406
300.42
300.433
300.447
300.461
300.475
300.489
300.503
300.517
300.531
300.545
300.559
300.573
300.587
300.601
300.615
300.629
300.642
300.656
300.669
300.683
300.696
300.709
300.722
300.735
300.748
300.761
300.773
300.786
300.798
300.81
300.822
300.834
300.846
300.857
300.869
300.88
300.891
300.902
300.913
300.002
300.007
300.013
300.018
300.024
300.029
300.036
300.042
300.048
300.055
300.062
300.069
300.077
300.085
300.093
300.101
300.109
300.118
300.127
300.136
300.146
300.156
300.166
300.176
300.186
300.197
300.208
300.219
300.23
300.241
300.253
300.265
300.277
300.289
300.301
300.313
300.326
300.338
300.351
300.364
300.377
300.39
300.403
300.416
300.429
300.442
300.455
300.468
300.481
300.494
300.508
300.521
300.534
300.547
300.56
300.573
300.586
300.598
300.611
300.624
300.636
300.649
300.661
300.673
300.685
300.697
300.709
300.721
300.733
300.744
300.756
300.767
300.778
300.789
300.8
300.811
300.822
300.832
300.842
300.852
300.863
300.002
300.007
300.012
300.018
300.023
300.029
300.035
300.041
300.047
300.054
300.06
300.068
300.075
300.082
300.09
300.098
300.106
300.115
300.123
300.132
300.142
300.151
300.16
300.17
300.18
300.19
300.201
300.211
300.222
300.233
300.244
300.255
300.267
300.278
300.29
300.301
300.313
300.325
300.337
300.349
300.361
300.374
300.386
300.398
300.41
300.423
300.435
300.447
300.46
300.472
300.484
300.497
300.509
300.521
300.533
300.545
300.557
300.569
300.581
300.593
300.605
300.616
300.628
300.639
300.65
300.661
300.673
300.684
300.694
300.705
300.716
300.726
300.737
300.747
300.757
300.767
300.777
300.786
300.796
300.805
300.815
300.002
300.007
300.012
300.017
300.022
300.028
300.034
300.04
300.046
300.052
300.059
300.066
300.073
300.08
300.087
300.095
300.103
300.111
300.12
300.128
300.137
300.146
300.155
300.165
300.174
300.184
300.194
300.204
300.214
300.225
300.235
300.246
300.257
300.268
300.279
300.29
300.301
300.312
300.324
300.335
300.346
300.358
300.37
300.381
300.393
300.404
300.416
300.427
300.439
300.451
300.462
300.474
300.485
300.497
300.508
300.519
300.53
300.542
300.553
300.564
300.574
300.585
300.596
300.607
300.617
300.628
300.638
300.648
300.658
300.668
300.678
300.688
300.697
300.707
300.716
300.726
300.735
300.744
300.753
300.762
300.77
300.002
300.007
300.012
300.017
300.022
300.027
300.033
300.039
300.045
300.051
300.057
300.064
300.071
300.078
300.085
300.092
300.1
300.108
300.116
300.124
300.133
300.141
300.15
300.159
300.169
300.178
300.187
300.197
300.207
300.217
300.227
300.237
300.247
300.258
300.268
300.279
300.289
300.3
300.311
300.322
300.332
300.343
300.354
300.365
300.376
300.387
300.398
300.409
300.42
300.431
300.441
300.452
300.463
300.474
300.484
300.495
300.505
300.516
300.526
300.536
300.547
300.557
300.567
300.577
300.587
300.596
300.606
300.616
300.625
300.634
300.643
300.653
300.662
300.67
300.679
300.688
300.696
300.705
300.713
300.721
300.729
300.002
300.007
300.011
300.016
300.021
300.026
300.032
300.037
300.043
300.049
300.056
300.062
300.069
300.075
300.082
300.09
300.097
300.105
300.113
300.121
300.129
300.137
300.146
300.154
300.163
300.172
300.181
300.19
300.2
300.209
300.219
300.229
300.238
300.248
300.258
300.268
300.278
300.289
300.299
300.309
300.319
300.33
300.34
300.35
300.361
300.371
300.381
300.392
300.402
300.412
300.423
300.433
300.443
300.453
300.463
300.473
300.483
300.493
300.502
300.512
300.522
300.531
300.541
300.55
300.559
300.568
300.577
300.586
300.595
300.604
300.612
300.621
300.629
300.638
300.646
300.654
300.662
300.67
300.678
300.685
300.693
300.002
300.006
300.011
300.016
300.021
300.026
300.031
300.037
300.042
300.048
300.054
300.06
300.067
300.073
300.08
300.087
300.094
300.102
300.109
300.117
300.125
300.133
300.141
300.15
300.158
300.167
300.176
300.185
300.194
300.203
300.212
300.221
300.231
300.24
300.25
300.259
300.269
300.279
300.288
300.298
300.308
300.318
300.328
300.338
300.347
300.357
300.367
300.377
300.387
300.396
300.406
300.416
300.425
300.435
300.444
300.454
300.463
300.472
300.482
300.491
300.5
300.509
300.518
300.527
300.535
300.544
300.552
300.561
300.569
300.577
300.586
300.594
300.602
300.609
300.617
300.625
300.632
300.64
300.647
300.654
300.661
300.002
300.006
300.011
300.015
300.02
300.025
300.03
300.036
300.041
300.047
300.053
300.059
300.065
300.072
300.078
300.085
300.092
300.099
300.107
300.114
300.122
300.13
300.138
300.146
300.154
300.162
300.171
300.18
300.188
300.197
300.206
300.215
300.224
300.233
300.242
300.252
300.261
300.27
300.28
300.289
300.299
300.308
300.318
300.327
300.336
300.346
300.355
300.365
300.374
300.383
300.393
300.402
300.411
300.42
300.429
300.438
300.447
300.456
300.465
300.474
300.482
300.491
300.499
300.508
300.516
300.524
300.532
300.54
300.548
300.556
300.564
300.572
300.579
300.587
300.594
300.601
300.608
300.616
300.622
300.629
300.636
300.002
300.006
300.011
300.015
300.02
300.025
300.03
300.035
300.041
300.046
300.052
300.058
300.064
300.07
300.077
300.084
300.091
300.098
300.105
300.112
300.12
300.127
300.135
300.143
300.151
300.159
300.168
300.176
300.184
300.193
300.202
300.211
300.219
300.228
300.237
300.246
300.255
300.264
300.274
300.283
300.292
300.301
300.31
300.319
300.328
300.338
300.347
300.356
300.365
300.374
300.383
300.392
300.401
300.409
300.418
300.427
300.436
300.444
300.453
300.461
300.469
300.478
300.486
300.494
300.502
300.51
300.518
300.526
300.533
300.541
300.548
300.556
300.563
300.57
300.577
300.584
300.591
300.598
300.605
300.611
300.618
300.002
300.006
300.011
300.015
300.02
300.025
300.03
300.035
300.04
300.046
300.051
300.057
300.063
300.07
300.076
300.083
300.09
300.097
300.104
300.111
300.118
300.126
300.134
300.141
300.149
300.158
300.166
300.174
300.182
300.191
300.199
300.208
300.217
300.226
300.234
300.243
300.252
300.261
300.27
300.279
300.288
300.297
300.306
300.315
300.324
300.333
300.342
300.351
300.36
300.369
300.378
300.386
300.395
300.404
300.412
300.421
300.429
300.438
300.446
300.454
300.463
300.471
300.479
300.487
300.495
300.502
300.51
300.518
300.525
300.533
300.54
300.547
300.554
300.561
300.568
300.575
300.582
300.589
300.595
300.602
300.608
302.794
302.915
303.018
303.107
303.187
303.259
303.325
303.386
303.442
303.493
303.541
303.586
303.628
303.666
303.703
303.737
303.769
303.799
303.828
303.855
303.882
303.909
303.935
303.963
303.991
304.019
304.047
304.075
304.103
304.13
304.158
304.185
304.212
304.239
304.265
304.292
304.318
304.344
304.369
304.395
304.42
304.446
304.471
304.496
304.521
304.546
304.571
304.596
304.62
304.645
304.669
304.694
304.718
304.742
304.766
304.79
304.814
304.838
304.862
304.886
304.909
304.933
304.956
304.98
305.003
305.026
305.05
305.073
305.096
305.118
305.141
305.164
305.187
305.209
305.232
305.254
305.276
305.298
305.32
305.342
305.364
305.386
305.407
305.429
305.45
305.471
305.492
305.513
305.534
305.554
305.575
305.595
305.615
305.635
305.655
305.674
305.693
305.712
305.731
305.75
305.768
305.786
305.804
305.822
305.839
305.856
305.873
305.889
305.905
305.921
305.937
305.952
305.967
305.981
305.995
306.009
306.022
306.035
306.047
306.059
306.07
306.081
306.091
306.101
306.11
306.118
306.126
306.133
306.139
306.145
306.149
306.153
306.156
306.158
306.158
306.158
306.156
306.154
306.149
306.143
306.136
306.127
306.116
306.103
306.088
306.07
306.05
306.027
306.001
305.971
305.938
305.9
305.858
305.81
305.756
305.696
305.634
305.561
305.46
305.311
305.083
302.728
302.837
302.934
303.022
303.101
303.173
303.24
303.302
303.359
303.412
303.461
303.507
303.551
303.591
303.629
303.665
303.698
303.73
303.761
303.79
303.819
303.847
303.875
303.904
303.932
303.961
303.989
304.018
304.046
304.074
304.102
304.13
304.157
304.184
304.211
304.238
304.264
304.29
304.317
304.342
304.368
304.394
304.42
304.445
304.471
304.496
304.521
304.546
304.571
304.596
304.62
304.645
304.67
304.694
304.719
304.743
304.767
304.791
304.815
304.839
304.863
304.887
304.91
304.934
304.958
304.981
305.004
305.028
305.051
305.074
305.097
305.12
305.143
305.165
305.188
305.211
305.233
305.255
305.278
305.3
305.322
305.344
305.365
305.387
305.408
305.43
305.451
305.472
305.493
305.514
305.534
305.555
305.575
305.595
305.615
305.635
305.654
305.673
305.692
305.711
305.729
305.748
305.766
305.784
305.801
305.818
305.835
305.852
305.868
305.884
305.9
305.915
305.93
305.944
305.959
305.972
305.986
305.999
306.011
306.023
306.034
306.045
306.056
306.065
306.075
306.083
306.091
306.098
306.105
306.11
306.115
306.119
306.122
306.123
306.124
306.124
306.122
306.119
306.115
306.109
306.102
306.093
306.082
306.069
306.053
306.036
306.015
305.992
305.966
305.936
305.902
305.864
305.821
305.773
305.718
305.657
305.591
305.513
305.407
305.253
305.024
302.67
302.766
302.856
302.94
303.017
303.089
303.155
303.217
303.275
303.329
303.379
303.426
303.471
303.513
303.552
303.589
303.625
303.658
303.691
303.722
303.752
303.782
303.811
303.841
303.87
303.899
303.928
303.957
303.986
304.014
304.043
304.071
304.098
304.126
304.153
304.18
304.207
304.234
304.261
304.287
304.313
304.339