/*--------------------------------*- C++ -*----------------------------------*\
| =========                 |                                                 |
| \\      /  F ield         | OpenFOAM: The Open Source CFD Toolbox           |
|  \\    /   O peration     | Version:  2112                                  |
|   \\  /    A nd           | Website:  www.openfoam.com                      |
|    \\/     M anipulation  |                                                 |
\*---------------------------------------------------------------------------*/
FoamFile
{
    version     2.0;
    format      ascii;
    arch        "LSB;label=32;scalar=64";
    class       volVectorField;
    location    "5";
    object      U;
}
// * * * * * * * * * * * * * * * * * * * * * * * * * * * * * * * * * * * * * //

dimensions      [0 1 -1 0 0 0 0];

internalField   nonuniform List<vector> 
12013
(
(0.100033 -9.18334e-06 0)
(0.100168 -1.69831e-05 0)
(0.100386 -2.42155e-05 0)
(0.100668 -3.08852e-05 0)
(0.101009 -3.71544e-05 0)
(0.101402 -4.3116e-05 0)
(0.101843 -4.8829e-05 0)
(0.102328 -5.43412e-05 0)
(0.102853 -5.96889e-05 0)
(0.103416 -6.49001e-05 0)
(0.104012 -6.99971e-05 0)
(0.10464 -7.49982e-05 0)
(0.105298 -7.99177e-05 0)
(0.105983 -8.47673e-05 0)
(0.106694 -8.95572e-05 0)
(0.107429 -9.42935e-05 0)
(0.108186 -9.89823e-05 0)
(0.108964 -0.000103628 0)
(0.109762 -0.000108234 0)
(0.110577 -0.000112801 0)
(0.111409 -0.000117331 0)
(0.112257 -0.000121824 0)
(0.113119 -0.000126278 0)
(0.113994 -0.000130691 0)
(0.114882 -0.000135062 0)
(0.11578 -0.000139388 0)
(0.116688 -0.000143664 0)
(0.117605 -0.000147886 0)
(0.11853 -0.000152048 0)
(0.119461 -0.000156147 0)
(0.120398 -0.000160173 0)
(0.12134 -0.000164121 0)
(0.122286 -0.000167984 0)
(0.123234 -0.000171751 0)
(0.124185 -0.000175414 0)
(0.125136 -0.000178962 0)
(0.126086 -0.000182384 0)
(0.127036 -0.000185668 0)
(0.127983 -0.000188799 0)
(0.128926 -0.000191763 0)
(0.129866 -0.000194544 0)
(0.1308 -0.000197123 0)
(0.131727 -0.000199479 0)
(0.132647 -0.000201592 0)
(0.133557 -0.000203435 0)
(0.134458 -0.00020498 0)
(0.135347 -0.000206197 0)
(0.136224 -0.000207049 0)
(0.137087 -0.000207497 0)
(0.137934 -0.000207494 0)
(0.138764 -0.000206989 0)
(0.139575 -0.000205921 0)
(0.140366 -0.00020422 0)
(0.141135 -0.000201805 0)
(0.141879 -0.000198582 0)
(0.142596 -0.000194439 0)
(0.143284 -0.000189245 0)
(0.14394 -0.000182841 0)
(0.144559 -0.000175039 0)
(0.14514 -0.000165609 0)
(0.145677 -0.000154271 0)
(0.146166 -0.000140679 0)
(0.1466 -0.000124402 0)
(0.146974 -0.000104897 0)
(0.147278 -8.14717e-05 0)
(0.147504 -5.32295e-05 0)
(0.147639 -1.89971e-05 0)
(0.147668 2.27972e-05 0)
(0.147573 7.43372e-05 0)
(0.14733 0.000138674 0)
(0.146907 0.000220168 0)
(0.146262 0.000325233 0)
(0.145336 0.000463586 0)
(0.144049 0.000650429 0)
(0.14228 0.000910338 0)
(0.139851 0.00128443 0)
(0.136489 0.00184394 0)
(0.131738 0.00271976 0)
(0.124841 0.00419269 0)
(0.114769 0.00708285 0)
(0.103218 0.0152192 0)
(0.10003 -2.80406e-05 0)
(0.100165 -5.20706e-05 0)
(0.100382 -7.4283e-05 0)
(0.100663 -9.47523e-05 0)
(0.101003 -0.000113993 0)
(0.101396 -0.000132288 0)
(0.101836 -0.000149819 0)
(0.10232 -0.000166733 0)
(0.102844 -0.00018314 0)
(0.103406 -0.000199127 0)
(0.104001 -0.000214763 0)
(0.104628 -0.000230103 0)
(0.105285 -0.000245193 0)
(0.105969 -0.000260068 0)
(0.106679 -0.000274757 0)
(0.107413 -0.000289282 0)
(0.108169 -0.000303661 0)
(0.108946 -0.000317907 0)
(0.109742 -0.000332029 0)
(0.110556 -0.000346033 0)
(0.111387 -0.00035992 0)
(0.112233 -0.000373692 0)
(0.113094 -0.000387345 0)
(0.113968 -0.000400874 0)
(0.114854 -0.000414272 0)
(0.11575 -0.000427528 0)
(0.116657 -0.000440632 0)
(0.117572 -0.000453569 0)
(0.118495 -0.000466324 0)
(0.119424 -0.00047888 0)
(0.12036 -0.000491216 0)
(0.1213 -0.000503311 0)
(0.122244 -0.000515141 0)
(0.12319 -0.000526679 0)
(0.124138 -0.000537897 0)
(0.125087 -0.000548761 0)
(0.126035 -0.000559239 0)
(0.126983 -0.000569291 0)
(0.127927 -0.000578876 0)
(0.128869 -0.000587948 0)
(0.129806 -0.000596456 0)
(0.130737 -0.000604345 0)
(0.131662 -0.000611553 0)
(0.132579 -0.000618012 0)
(0.133487 -0.000623645 0)
(0.134385 -0.000628366 0)
(0.135272 -0.000632079 0)
(0.136146 -0.000634677 0)
(0.137006 -0.000636035 0)
(0.13785 -0.000636015 0)
(0.138678 -0.000634456 0)
(0.139487 -0.000631175 0)
(0.140275 -0.000625959 0)
(0.141041 -0.000618561 0)
(0.141783 -0.000608692 0)
(0.142498 -0.000596014 0)
(0.143183 -0.000580126 0)
(0.143837 -0.000560549 0)
(0.144455 -0.000536707 0)
(0.145035 -0.000507907 0)
(0.145571 -0.0004733 0)
(0.14606 -0.000431839 0)
(0.146495 -0.000382225 0)
(0.146871 -0.000322821 0)
(0.147179 -0.000251546 0)
(0.147411 -0.000165719 0)
(0.147555 -6.18357e-05 0)
(0.147597 6.47564e-05 0)
(0.147521 0.000220432 0)
(0.147305 0.000414038 0)
(0.146921 0.000658086 0)
(0.146333 0.000970713 0)
(0.145495 0.00137888 0)
(0.144343 0.00192375 0)
(0.14279 0.00266974 0)
(0.140721 0.00371999 0)
(0.137978 0.00524199 0)
(0.134345 0.00750941 0)
(0.129564 0.0109717 0)
(0.12365 0.0162783 0)
(0.118774 0.0237227 0)
(0.100028 -4.76649e-05 0)
(0.100161 -8.9318e-05 0)
(0.100376 -0.000127575 0)
(0.100656 -0.000162817 0)
(0.100994 -0.000195938 0)
(0.101384 -0.000227423 0)
(0.101823 -0.000257589 0)
(0.102305 -0.00028669 0)
(0.102828 -0.000314915 0)
(0.103387 -0.000342416 0)
(0.10398 -0.000369311 0)
(0.104606 -0.000395695 0)
(0.10526 -0.000421646 0)
(0.105942 -0.000447226 0)
(0.10665 -0.000472483 0)
(0.107382 -0.000497457 0)
(0.108135 -0.000522178 0)
(0.10891 -0.000546668 0)
(0.109703 -0.000570943 0)
(0.110515 -0.000595012 0)
(0.111343 -0.00061888 0)
(0.112186 -0.000642547 0)
(0.113044 -0.000666007 0)
(0.113915 -0.000689252 0)
(0.114797 -0.000712268 0)
(0.115691 -0.00073504 0)
(0.116594 -0.000757547 0)
(0.117505 -0.000779765 0)
(0.118425 -0.000801668 0)
(0.119351 -0.000823226 0)
(0.120282 -0.000844403 0)
(0.121218 -0.000865164 0)
(0.122158 -0.000885466 0)
(0.1231 -0.000905263 0)
(0.124044 -0.000924506 0)
(0.124989 -0.000943141 0)
(0.125933 -0.000961107 0)
(0.126875 -0.000978339 0)
(0.127815 -0.000994765 0)
(0.128752 -0.00101031 0)
(0.129684 -0.00102488 0)
(0.130611 -0.00103838 0)
(0.13153 -0.00105071 0)
(0.132442 -0.00106176 0)
(0.133345 -0.00107138 0)
(0.134238 -0.00107943 0)
(0.135119 -0.00108575 0)
(0.135988 -0.00109016 0)
(0.136842 -0.00109244 0)
(0.137681 -0.00109235 0)
(0.138503 -0.00108963 0)
(0.139307 -0.00108396 0)
(0.14009 -0.00107498 0)
(0.14085 -0.00106226 0)
(0.141587 -0.00104533 0)
(0.142297 -0.00102361 0)
(0.142978 -0.00099642 0)
(0.143628 -0.000962954 0)
(0.144242 -0.00092225 0)
(0.144819 -0.000873142 0)
(0.145353 -0.000814216 0)
(0.145842 -0.000743731 0)
(0.146278 -0.000659537 0)
(0.146657 -0.000558939 0)
(0.146971 -0.000438531 0)
(0.147213 -0.000293957 0)
(0.147372 -0.000119574 0)
(0.147436 9.20126e-05 0)
(0.147392 0.000350758 0)
(0.147222 0.000670222 0)
(0.146904 0.00106919 0)
(0.146413 0.0015741 0)
(0.145718 0.00222286 0)
(0.144781 0.00307069 0)
(0.143559 0.00419901 0)
(0.142008 0.00572846 0)
(0.140096 0.00783554 0)
(0.137827 0.0107685 0)
(0.135306 0.0148459 0)
(0.132942 0.0203256 0)
(0.13193 0.0266544 0)
(0.100025 -6.78881e-05 0)
(0.100156 -0.000128623 0)
(0.100368 -0.000184028 0)
(0.100645 -0.000235098 0)
(0.10098 -0.000283071 0)
(0.101368 -0.000328659 0)
(0.101804 -0.000372329 0)
(0.102284 -0.000414447 0)
(0.102803 -0.000455293 0)
(0.10336 -0.000495084 0)
(0.10395 -0.000533993 0)
(0.104572 -0.000572159 0)
(0.105224 -0.000609693 0)
(0.105902 -0.000646685 0)
(0.106606 -0.000683206 0)
(0.107334 -0.000719314 0)
(0.108084 -0.000755051 0)
(0.108855 -0.00079045 0)
(0.109644 -0.000825534 0)
(0.110452 -0.000860316 0)
(0.111276 -0.000894802 0)
(0.112115 -0.000928993 0)
(0.112968 -0.00096288 0)
(0.113834 -0.000996452 0)
(0.114712 -0.00102969 0)
(0.1156 -0.00106257 0)
(0.116498 -0.00109505 0)
(0.117404 -0.00112712 0)
(0.118318 -0.00115873 0)
(0.119239 -0.00118983 0)
(0.120164 -0.00122038 0)
(0.121095 -0.00125031 0)
(0.122028 -0.00127958 0)
(0.122964 -0.00130811 0)
(0.123902 -0.00133584 0)
(0.12484 -0.00136268 0)
(0.125777 -0.00138855 0)
(0.126712 -0.00141335 0)
(0.127645 -0.00143698 0)
(0.128575 -0.00145933 0)
(0.129499 -0.00148027 0)
(0.130418 -0.00149966 0)
(0.13133 -0.00151735 0)
(0.132235 -0.00153318 0)
(0.13313 -0.00154695 0)
(0.134014 -0.00155845 0)
(0.134888 -0.00156745 0)
(0.135748 -0.00157369 0)
(0.136594 -0.00157687 0)
(0.137425 -0.00157663 0)
(0.138239 -0.0015726 0)
(0.139034 -0.00156434 0)
(0.139809 -0.00155132 0)
(0.140563 -0.00153296 0)
(0.141292 -0.00150857 0)
(0.141995 -0.00147733 0)
(0.142669 -0.0014383 0)
(0.143313 -0.00139035 0)
(0.143923 -0.00133213 0)
(0.144495 -0.00126202 0)
(0.145028 -0.00117808 0)
(0.145515 -0.00107792 0)
(0.145954 -0.000958586 0)
(0.146338 -0.00081645 0)
(0.146662 -0.000646938 0)
(0.146919 -0.00044427 0)
(0.147101 -0.000201063 0)
(0.147198 9.21888e-05 0)
(0.1472 0.000447971 0)
(0.147096 0.000882848 0)
(0.146871 0.00141909 0)
(0.146512 0.00208685 0)
(0.146004 0.00292727 0)
(0.145336 0.00399672 0)
(0.144503 0.00537207 0)
(0.143517 0.00715635 0)
(0.142425 0.00948111 0)
(0.141334 0.0124962 0)
(0.140455 0.0163238 0)
(0.140153 0.0209069 0)
(0.140948 0.02559 0)
(0.100023 -8.87168e-05 0)
(0.100151 -0.000169912 0)
(0.100359 -0.00024361 0)
(0.100632 -0.000311613 0)
(0.100964 -0.00037547 0)
(0.101348 -0.000436128 0)
(0.10178 -0.000494217 0)
(0.102256 -0.000550229 0)
(0.102771 -0.000604538 0)
(0.103324 -0.000657434 0)
(0.10391 -0.000709147 0)
(0.104528 -0.000759863 0)
(0.105175 -0.000809731 0)
(0.105849 -0.00085887 0)
(0.106548 -0.000907376 0)
(0.107271 -0.000955324 0)
(0.108016 -0.00100277 0)
(0.108782 -0.00104976 0)
(0.109566 -0.00109633 0)
(0.110368 -0.00114248 0)
(0.111186 -0.00118824 0)
(0.112019 -0.00123359 0)
(0.112866 -0.00127853 0)
(0.113725 -0.00132305 0)
(0.114596 -0.00136711 0)
(0.115478 -0.00141068 0)
(0.116369 -0.00145373 0)
(0.117268 -0.00149622 0)
(0.118175 -0.00153807 0)
(0.119087 -0.00157925 0)
(0.120005 -0.00161968 0)
(0.120927 -0.00165929 0)
(0.121853 -0.00169801 0)
(0.12278 -0.00173574 0)
(0.123709 -0.00177238 0)
(0.124638 -0.00180784 0)
(0.125566 -0.001842 0)
(0.126493 -0.00187473 0)
(0.127416 -0.0019059 0)
(0.128336 -0.00193535 0)
(0.129251 -0.00196293 0)
(0.13016 -0.00198844 0)
(0.131061 -0.0020117 0)
(0.131955 -0.00203247 0)
(0.13284 -0.00205051 0)
(0.133714 -0.00206554 0)
(0.134577 -0.00207726 0)
(0.135426 -0.00208532 0)
(0.136262 -0.00208933 0)
(0.137082 -0.00208884 0)
(0.137885 -0.00208334 0)
(0.13867 -0.00207227 0)
(0.139435 -0.00205496 0)
(0.140178 -0.00203065 0)
(0.140898 -0.00199844 0)
(0.141592 -0.00195731 0)
(0.142258 -0.00190603 0)
(0.142895 -0.00184319 0)
(0.143499 -0.00176708 0)
(0.144067 -0.00167568 0)
(0.144597 -0.00156654 0)
(0.145085 -0.00143673 0)
(0.145528 -0.00128265 0)
(0.14592 -0.00109989 0)
(0.146258 -0.000882992 0)
(0.146537 -0.000625151 0)
(0.146749 -0.00031782 0)
(0.146891 4.97814e-05 0)
(0.146954 0.000491159 0)
(0.146933 0.00102394 0)
(0.146822 0.0016708 0)
(0.146619 0.00246101 0)
(0.146323 0.00343216 0)
(0.145944 0.00463207 0)
(0.145501 0.00612018 0)
(0.145037 0.00796688 0)
(0.144629 0.0102474 0)
(0.144399 0.0130228 0)
(0.144532 0.0162942 0)
(0.145263 0.0199071 0)
(0.146796 0.0233887 0)
(0.10002 -0.00011016 0)
(0.100145 -0.000213115 0)
(0.100349 -0.000306275 0)
(0.100618 -0.000392354 0)
(0.100945 -0.000473174 0)
(0.101325 -0.000549917 0)
(0.101752 -0.00062339 0)
(0.102222 -0.000694216 0)
(0.102733 -0.00076287 0)
(0.10328 -0.000829721 0)
(0.103861 -0.000895062 0)
(0.104473 -0.000959129 0)
(0.105114 -0.00102211 0)
(0.105783 -0.00108416 0)
(0.106476 -0.00114539 0)
(0.107193 -0.00120591 0)
(0.107931 -0.00126578 0)
(0.10869 -0.00132506 0)
(0.109467 -0.00138379 0)
(0.110262 -0.00144199 0)
(0.111072 -0.00149968 0)
(0.111898 -0.00155684 0)
(0.112737 -0.00161347 0)
(0.113588 -0.00166955 0)
(0.114451 -0.00172504 0)
(0.115324 -0.0017799 0)
(0.116206 -0.00183408 0)
(0.117096 -0.00188753 0)
(0.117993 -0.00194018 0)
(0.118896 -0.00199196 0)
(0.119804 -0.00204278 0)
(0.120716 -0.00209255 0)
(0.121631 -0.00214117 0)
(0.122548 -0.00218853 0)
(0.123466 -0.0022345 0)
(0.124384 -0.00227897 0)
(0.125301 -0.00232178 0)
(0.126215 -0.00236277 0)
(0.127127 -0.00240177 0)
(0.128035 -0.0024386 0)
(0.128937 -0.00247305 0)
(0.129834 -0.00250489 0)
(0.130723 -0.00253386 0)
(0.131604 -0.00255971 0)
(0.132475 -0.0025821 0)
(0.133336 -0.00260071 0)
(0.134186 -0.00261515 0)
(0.135023 -0.00262499 0)
(0.135845 -0.00262975 0)
(0.136652 -0.00262888 0)
(0.137443 -0.00262177 0)
(0.138215 -0.0026077 0)
(0.138968 -0.00258588 0)
(0.139699 -0.00255538 0)
(0.140407 -0.00251512 0)
(0.141091 -0.00246387 0)
(0.141748 -0.00240017 0)
(0.142377 -0.00232233 0)
(0.142974 -0.00222834 0)
(0.143539 -0.00211585 0)
(0.144067 -0.00198203 0)
(0.144558 -0.00182352 0)
(0.145006 -0.00163624 0)
(0.145411 -0.00141528 0)
(0.145767 -0.00115467 0)
(0.146073 -0.000847085 0)
(0.146324 -0.000483548 0)
(0.146519 -5.30322e-05 0)
(0.146654 0.000457767 0)
(0.146729 0.0010654 0)
(0.146745 0.00179032 0)
(0.146707 0.00265737 0)
(0.146627 0.00369634 0)
(0.146524 0.00494184 0)
(0.146431 0.00643218 0)
(0.146398 0.00820579 0)
(0.1465 0.0102931 0)
(0.146839 0.0127004 0)
(0.147539 0.015381 0)
(0.148731 0.0181904 0)
(0.150479 0.0208371 0)
(0.100018 -0.000132226 0)
(0.10014 -0.000258175 0)
(0.100339 -0.000371976 0)
(0.100602 -0.000477293 0)
(0.100924 -0.000576191 0)
(0.101298 -0.000670076 0)
(0.101719 -0.000759939 0)
(0.102184 -0.000846538 0)
(0.102688 -0.000930458 0)
(0.103229 -0.00101215 0)
(0.103803 -0.00109198 0)
(0.104408 -0.00117022 0)
(0.105043 -0.00124712 0)
(0.105704 -0.00132286 0)
(0.10639 -0.00139759 0)
(0.107099 -0.00147142 0)
(0.107829 -0.00154445 0)
(0.108579 -0.00161673 0)
(0.109348 -0.00168833 0)
(0.110134 -0.00175926 0)
(0.110935 -0.00182953 0)
(0.111752 -0.00189915 0)
(0.112581 -0.00196811 0)
(0.113423 -0.00203636 0)
(0.114275 -0.00210388 0)
(0.115138 -0.00217061 0)
(0.116009 -0.00223649 0)
(0.116888 -0.00230146 0)
(0.117774 -0.00236543 0)
(0.118665 -0.00242831 0)
(0.119561 -0.00249 0)
(0.120461 -0.00255038 0)
(0.121363 -0.00260934 0)
(0.122267 -0.00266674 0)
(0.123172 -0.00272243 0)
(0.124076 -0.00277626 0)
(0.124979 -0.00282804 0)
(0.12588 -0.00287759 0)
(0.126778 -0.00292469 0)
(0.127671 -0.00296913 0)
(0.128559 -0.00301064 0)
(0.12944 -0.00304896 0)
(0.130315 -0.00308379 0)
(0.13118 -0.00311479 0)
(0.132037 -0.00314159 0)
(0.132882 -0.00316379 0)
(0.133717 -0.00318093 0)
(0.134538 -0.0031925 0)
(0.135345 -0.00319793 0)
(0.136137 -0.00319658 0)
(0.136913 -0.00318772 0)
(0.137671 -0.00317053 0)
(0.138409 -0.00314406 0)
(0.139127 -0.00310726 0)
(0.139823 -0.00305888 0)
(0.140495 -0.0029975 0)
(0.141143 -0.00292149 0)
(0.141763 -0.00282893 0)
(0.142354 -0.0027176 0)
(0.142915 -0.00258488 0)
(0.143443 -0.00242771 0)
(0.143937 -0.00224246 0)
(0.144395 -0.00202483 0)
(0.144814 -0.00176972 0)
(0.145193 -0.00147103 0)
(0.145531 -0.00112152 0)
(0.145828 -0.000712524 0)
(0.146082 -0.000233743 0)
(0.146295 0.000326932 0)
(0.146471 0.000983341 0)
(0.146616 0.00175188 0)
(0.14674 0.00265119 0)
(0.14686 0.0037017 0)
(0.147 0.00492457 0)
(0.147194 0.00633949 0)
(0.147486 0.00796085 0)
(0.147938 0.00979123 0)
(0.148619 0.0118113 0)
(0.149604 0.0139656 0)
(0.150954 0.0161465 0)
(0.152683 0.0181851 0)
(0.100015 -0.000154936 0)
(0.100134 -0.000305053 0)
(0.100329 -0.000440675 0)
(0.100586 -0.000566391 0)
(0.100901 -0.000684506 0)
(0.101268 -0.000796624 0)
(0.101683 -0.000903915 0)
(0.10214 -0.00100728 0)
(0.102637 -0.00110742 0)
(0.10317 -0.00120487 0)
(0.103737 -0.00130007 0)
(0.104334 -0.00139335 0)
(0.10496 -0.001485 0)
(0.105612 -0.00157523 0)
(0.106289 -0.00166424 0)
(0.106989 -0.00175214 0)
(0.10771 -0.00183907 0)
(0.108451 -0.00192508 0)
(0.109209 -0.00201024 0)
(0.109985 -0.00209458 0)
(0.110776 -0.00217812 0)
(0.111581 -0.00226084 0)
(0.112399 -0.00234275 0)
(0.113229 -0.00242379 0)
(0.114069 -0.00250393 0)
(0.114919 -0.0025831 0)
(0.115778 -0.00266124 0)
(0.116644 -0.00273825 0)
(0.117516 -0.00281404 0)
(0.118394 -0.0028885 0)
(0.119276 -0.00296152 0)
(0.120161 -0.00303295 0)
(0.121049 -0.00310266 0)
(0.121938 -0.00317048 0)
(0.122827 -0.00323623 0)
(0.123716 -0.00329974 0)
(0.124603 -0.00336078 0)
(0.125488 -0.00341914 0)
(0.126369 -0.00347457 0)
(0.127245 -0.0035268 0)
(0.128116 -0.00357554 0)
(0.128981 -0.00362047 0)
(0.129837 -0.00366123 0)
(0.130686 -0.00369745 0)
(0.131525 -0.00372868 0)
(0.132353 -0.00375447 0)
(0.133169 -0.00377428 0)
(0.133973 -0.00378753 0)
(0.134763 -0.00379357 0)
(0.135538 -0.00379166 0)
(0.136297 -0.00378099 0)
(0.137039 -0.00376062 0)
(0.137762 -0.0037295 0)
(0.138466 -0.00368644 0)
(0.139148 -0.00363009 0)
(0.139808 -0.00355888 0)
(0.140445 -0.00347104 0)
(0.141057 -0.00336452 0)
(0.141642 -0.00323695 0)
(0.1422 -0.0030856 0)
(0.142729 -0.00290729 0)
(0.143228 -0.00269836 0)
(0.143697 -0.00245453 0)
(0.144134 -0.00217084 0)
(0.14454 -0.0018415 0)
(0.144914 -0.00145983 0)
(0.145258 -0.00101813 0)
(0.145574 -0.000507563 0)
(0.145867 8.18866e-05 0)
(0.146143 0.000760712 0)
(0.146409 0.00154046 0)
(0.14668 0.00243325 0)
(0.146972 0.00345084 0)
(0.147309 0.00460324 0)
(0.147719 0.00589675 0)
(0.14824 0.00733091 0)
(0.148911 0.00889455 0)
(0.149778 0.0105607 0)
(0.150879 0.0122814 0)
(0.152239 0.0139834 0)
(0.153854 0.0155716 0)
(0.100012 -0.000178319 0)
(0.100129 -0.000353719 0)
(0.100318 -0.000512336 0)
(0.100569 -0.000659608 0)
(0.100877 -0.000798089 0)
(0.101237 -0.000929548 0)
(0.101644 -0.00105533 0)
(0.102093 -0.00117649 0)
(0.102581 -0.00129383 0)
(0.103106 -0.00140798 0)
(0.103663 -0.00151945 0)
(0.104251 -0.00162864 0)
(0.104867 -0.00173589 0)
(0.10551 -0.00184144 0)
(0.106176 -0.00194552 0)
(0.106865 -0.00204827 0)
(0.107575 -0.00214984 0)
(0.108304 -0.0022503 0)
(0.109051 -0.00234974 0)
(0.109815 -0.00244817 0)
(0.110593 -0.00254563 0)
(0.111385 -0.00264211 0)
(0.11219 -0.00273759 0)
(0.113007 -0.00283202 0)
(0.113833 -0.00292535 0)
(0.114669 -0.00301752 0)
(0.115513 -0.00310843 0)
(0.116364 -0.00319799 0)
(0.117221 -0.00328609 0)
(0.118083 -0.00337259 0)
(0.118949 -0.00345736 0)
(0.119817 -0.00354024 0)
(0.120688 -0.00362107 0)
(0.12156 -0.00369964 0)
(0.122432 -0.00377577 0)
(0.123303 -0.00384924 0)
(0.124172 -0.00391979 0)
(0.125038 -0.00398718 0)
(0.1259 -0.00405111 0)
(0.126758 -0.00411129 0)
(0.12761 -0.00416738 0)
(0.128455 -0.004219 0)
(0.129292 -0.00426576 0)
(0.130121 -0.00430723 0)
(0.13094 -0.0043429 0)
(0.131749 -0.00437227 0)
(0.132546 -0.00439472 0)
(0.133331 -0.00440962 0)
(0.134102 -0.00441624 0)
(0.134858 -0.00441377 0)
(0.135599 -0.0044013 0)
(0.136323 -0.00437783 0)
(0.13703 -0.00434222 0)
(0.137718 -0.00429319 0)
(0.138386 -0.00422929 0)
(0.139033 -0.00414889 0)
(0.139659 -0.00405014 0)
(0.140263 -0.00393093 0)
(0.140842 -0.00378887 0)
(0.141398 -0.00362123 0)
(0.141929 -0.00342491 0)
(0.142436 -0.0031964 0)
(0.142917 -0.00293168 0)
(0.143374 -0.00262624 0)
(0.143807 -0.00227496 0)
(0.144218 -0.00187215 0)
(0.14461 -0.00141151 0)
(0.144988 -0.000886166 0)
(0.145355 -0.000288715 0)
(0.145722 0.000388487 0)
(0.146095 0.0011519 0)
(0.146489 0.00200797 0)
(0.146919 0.0029616 0)
(0.147405 0.00401503 0)
(0.147968 0.00516638 0)
(0.148635 0.0064078 0)
(0.149431 0.00772356 0)
(0.150381 0.00908806 0)
(0.151503 0.0104646 0)
(0.152806 0.0118059 0)
(0.154278 0.0130583 0)
(0.100009 -0.000202406 0)
(0.100124 -0.000404153 0)
(0.100307 -0.000586924 0)
(0.100551 -0.0007569 0)
(0.100852 -0.00091689 0)
(0.101204 -0.00106881 0)
(0.101601 -0.00121416 0)
(0.102042 -0.00135415 0)
(0.102521 -0.00148968 0)
(0.103035 -0.00162149 0)
(0.103582 -0.00175017 0)
(0.104159 -0.00187617 0)
(0.104765 -0.00199986 0)
(0.105395 -0.00212157 0)
(0.10605 -0.00224152 0)
(0.106727 -0.0023599 0)
(0.107425 -0.00247686 0)
(0.108141 -0.0025925 0)
(0.108874 -0.00270691 0)
(0.109624 -0.00282012 0)
(0.110388 -0.00293216 0)
(0.111166 -0.00304302 0)
(0.111956 -0.00315267 0)
(0.112757 -0.00326107 0)
(0.113568 -0.00336815 0)
(0.114387 -0.00347384 0)
(0.115215 -0.00357804 0)
(0.116048 -0.00368063 0)
(0.116888 -0.00378148 0)
(0.117732 -0.00388044 0)
(0.11858 -0.00397735 0)
(0.11943 -0.00407205 0)
(0.120282 -0.00416432 0)
(0.121134 -0.00425395 0)
(0.121987 -0.00434072 0)
(0.122838 -0.00442438 0)
(0.123686 -0.00450465 0)
(0.124532 -0.00458124 0)
(0.125373 -0.00465382 0)
(0.12621 -0.00472206 0)
(0.127041 -0.00478557 0)
(0.127864 -0.00484395 0)
(0.12868 -0.00489675 0)
(0.129488 -0.00494347 0)
(0.130285 -0.0049836 0)
(0.131073 -0.00501653 0)
(0.131849 -0.00504163 0)
(0.132612 -0.00505819 0)
(0.133363 -0.00506542 0)
(0.134099 -0.00506247 0)
(0.13482 -0.00504835 0)
(0.135526 -0.00502202 0)
(0.136215 -0.00498228 0)
(0.136886 -0.0049278 0)
(0.13754 -0.00485711 0)
(0.138174 -0.00476854 0)
(0.138789 -0.00466026 0)
(0.139384 -0.00453019 0)
(0.139959 -0.00437602 0)
(0.140513 -0.00419517 0)
(0.141047 -0.00398477 0)
(0.141561 -0.00374163 0)
(0.142055 -0.00346223 0)
(0.142532 -0.00314273 0)
(0.142993 -0.00277894 0)
(0.14344 -0.0023664 0)
(0.143877 -0.00190043 0)
(0.14431 -0.00137622 0)
(0.144744 -0.000789033 0)
(0.145187 -0.000134259 0)
(0.145648 0.000591709 0)
(0.146139 0.00139015 0)
(0.146672 0.00226131 0)
(0.147261 0.00320282 0)
(0.147923 0.00420875 0)
(0.148673 0.00526876 0)
(0.149527 0.00636741 0)
(0.150498 0.00748374 0)
(0.151592 0.00859155 0)
(0.15281 0.00966084 0)
(0.154139 0.0106611 0)
(0.100006 -0.000227224 0)
(0.100118 -0.000456337 0)
(0.100296 -0.000664404 0)
(0.100533 -0.000858211 0)
(0.100826 -0.00104084 0)
(0.101169 -0.00121433 0)
(0.101557 -0.00138034 0)
(0.101987 -0.00154019 0)
(0.102456 -0.00169493 0)
(0.102959 -0.00184537 0)
(0.103494 -0.00199218 0)
(0.10406 -0.00213588 0)
(0.104653 -0.0022769 0)
(0.105271 -0.00241559 0)
(0.105912 -0.00255221 0)
(0.106575 -0.00268699 0)
(0.107259 -0.00282009 0)
(0.10796 -0.00295164 0)
(0.108679 -0.00308171 0)
(0.109413 -0.00321036 0)
(0.110161 -0.00333761 0)
(0.110923 -0.00346346 0)
(0.111696 -0.00358787 0)
(0.11248 -0.0037108 0)
(0.113273 -0.00383216 0)
(0.114074 -0.00395188 0)
(0.114883 -0.00406983 0)
(0.115698 -0.00418588 0)
(0.116518 -0.00429989 0)
(0.117342 -0.00441169 0)
(0.11817 -0.0045211 0)
(0.118999 -0.00462792 0)
(0.11983 -0.00473192 0)
(0.120661 -0.00483287 0)
(0.121492 -0.00493051 0)
(0.122321 -0.00502455 0)
(0.123147 -0.00511469 0)
(0.12397 -0.00520061 0)
(0.124789 -0.00528195 0)
(0.125602 -0.00535832 0)
(0.12641 -0.00542931 0)
(0.12721 -0.00549448 0)
(0.128003 -0.00555333 0)
(0.128787 -0.00560532 0)
(0.129561 -0.0056499 0)
(0.130325 -0.00568642 0)
(0.131078 -0.0057142 0)
(0.13182 -0.00573249 0)
(0.132548 -0.00574047 0)
(0.133263 -0.00573722 0)
(0.133964 -0.00572176 0)
(0.13465 -0.005693 0)
(0.13532 -0.00564972 0)
(0.135975 -0.00559062 0)
(0.136613 -0.00551422 0)
(0.137234 -0.00541891 0)
(0.137838 -0.00530294 0)
(0.138425 -0.00516436 0)
(0.138994 -0.00500104 0)
(0.139547 -0.00481067 0)
(0.140083 -0.00459074 0)
(0.140605 -0.00433853 0)
(0.141112 -0.00405118 0)
(0.141607 -0.00372564 0)
(0.142093 -0.00335878 0)
(0.142572 -0.00294744 0)
(0.143049 -0.00248855 0)
(0.143528 -0.00197927 0)
(0.144016 -0.00141712 0)
(0.14452 -0.000800204 0)
(0.145047 -0.000127247 0)
(0.145608 0.000601295 0)
(0.14621 0.00138174 0)
(0.146864 0.00220948 0)
(0.147581 0.00307732 0)
(0.14837 0.00397516 0)
(0.149238 0.0048899 0)
(0.150192 0.00580562 0)
(0.151232 0.00670429 0)
(0.152357 0.00756699 0)
(0.153555 0.00837616 0)
(0.100003 -0.000252794 0)
(0.100113 -0.00051025 0)
(0.100285 -0.000744725 0)
(0.100515 -0.000963472 0)
(0.100799 -0.00116986 0)
(0.101132 -0.00136602 0)
(0.101511 -0.00155375 0)
(0.10193 -0.00173451 0)
(0.102386 -0.00190945 0)
(0.102878 -0.00207949 0)
(0.1034 -0.00224536 0)
(0.103953 -0.00240766 0)
(0.104532 -0.00256686 0)
(0.105135 -0.00272336 0)
(0.105762 -0.00287745 0)
(0.10641 -0.0030294 0)
(0.107078 -0.00317937 0)
(0.107763 -0.00332752 0)
(0.108465 -0.00347393 0)
(0.109182 -0.00361866 0)
(0.109913 -0.00376174 0)
(0.110656 -0.00390316 0)
(0.11141 -0.00404289 0)
(0.112175 -0.00418086 0)
(0.112949 -0.004317 0)
(0.11373 -0.00445119 0)
(0.114518 -0.00458332 0)
(0.115312 -0.00471324 0)
(0.116111 -0.00484078 0)
(0.116913 -0.00496575 0)
(0.117719 -0.00508796 0)
(0.118526 -0.00520717 0)
(0.119333 -0.00532314 0)
(0.120141 -0.00543561 0)
(0.120948 -0.00554428 0)
(0.121753 -0.00564885 0)
(0.122555 -0.00574898 0)
(0.123353 -0.00584431 0)
(0.124147 -0.00593446 0)
(0.124935 -0.00601901 0)
(0.125718 -0.00609751 0)
(0.126493 -0.00616948 0)
(0.127261 -0.00623438 0)
(0.128019 -0.00629167 0)
(0.128769 -0.00634073 0)
(0.129508 -0.00638089 0)
(0.130237 -0.00641145 0)
(0.130954 -0.00643162 0)
(0.131659 -0.00644057 0)
(0.132352 -0.00643737 0)
(0.133031 -0.00642104 0)
(0.133697 -0.00639049 0)
(0.134348 -0.00634454 0)
(0.134985 -0.00628191 0)
(0.135607 -0.00620123 0)
(0.136214 -0.006101 0)
(0.136807 -0.0059796 0)
(0.137385 -0.0058353 0)
(0.137949 -0.00566625 0)
(0.1385 -0.00547048 0)
(0.139038 -0.00524594 0)
(0.139566 -0.0049905 0)
(0.140084 -0.00470197 0)
(0.140595 -0.0043782 0)
(0.141102 -0.00401707 0)
(0.141607 -0.00361667 0)
(0.142115 -0.00317534 0)
(0.142631 -0.00269183 0)
(0.143159 -0.00216548 0)
(0.143706 -0.00159632 0)
(0.144278 -0.000985228 0)
(0.144881 -0.000333863 0)
(0.145524 0.000354887 0)
(0.146212 0.00107435 0)
(0.146951 0.00181707 0)
(0.147746 0.0025744 0)
(0.1486 0.00333612 0)
(0.149516 0.00409077 0)
(0.150492 0.00482613 0)
(0.151524 0.00553028 0)
(0.152604 0.00619294 0)
(0.0999996 -0.000279124 0)
(0.100107 -0.000565858 0)
(0.100274 -0.000827819 0)
(0.100496 -0.00107258 0)
(0.100771 -0.0013038 0)
(0.101095 -0.00152372 0)
(0.101462 -0.00173422 0)
(0.101869 -0.00193691 0)
(0.102313 -0.00213305 0)
(0.102791 -0.00232363 0)
(0.1033 -0.00250948 0)
(0.103838 -0.00269125 0)
(0.104402 -0.00286948 0)
(0.10499 -0.0030446 0)
(0.105601 -0.00321694 0)
(0.106232 -0.00338679 0)
(0.106882 -0.00355435 0)
(0.10755 -0.00371977 0)
(0.108233 -0.00388317 0)
(0.108931 -0.00404459 0)
(0.109642 -0.00420408 0)
(0.110366 -0.00436161 0)
(0.1111 -0.00451717 0)
(0.111843 -0.00467067 0)
(0.112595 -0.00482202 0)
(0.113355 -0.00497111 0)
(0.114121 -0.00511781 0)
(0.114892 -0.00526193 0)
(0.115667 -0.00540331 0)
(0.116446 -0.00554174 0)
(0.117226 -0.00567698 0)
(0.118009 -0.0058088 0)
(0.118791 -0.00593692 0)
(0.119574 -0.00606105 0)
(0.120355 -0.00618088 0)
(0.121134 -0.00629606 0)
(0.121909 -0.00640625 0)
(0.122681 -0.00651104 0)
(0.123448 -0.00661003 0)
(0.12421 -0.00670277 0)
(0.124965 -0.00678878 0)
(0.125714 -0.00686754 0)
(0.126454 -0.00693852 0)
(0.127186 -0.00700113 0)
(0.12791 -0.00705472 0)
(0.128623 -0.00709863 0)
(0.129326 -0.00713214 0)
(0.130018 -0.00715445 0)
(0.130699 -0.00716472 0)
(0.131368 -0.00716207 0)
(0.132024 -0.00714552 0)
(0.132668 -0.00711404 0)
(0.1333 -0.00706652 0)
(0.133918 -0.00700177 0)
(0.134524 -0.00691855 0)
(0.135117 -0.00681552 0)
(0.135698 -0.00669128 0)
(0.136266 -0.00654437 0)
(0.136824 -0.00637327 0)
(0.137372 -0.00617643 0)
(0.13791 -0.0059523 0)
(0.138441 -0.00569934 0)
(0.138967 -0.00541607 0)
(0.13949 -0.00510115 0)
(0.140012 -0.00475341 0)
(0.140536 -0.00437196 0)
(0.141067 -0.00395627 0)
(0.141607 -0.00350631 0)
(0.142162 -0.0030226 0)
(0.142735 -0.00250639 0)
(0.143331 -0.00195971 0)
(0.143956 -0.00138541 0)
(0.144614 -0.000787091 0)
(0.145309 -0.00016862 0)
(0.146046 0.000463941 0)
(0.146825 0.00110232 0)
(0.147648 0.00173828 0)
(0.148514 0.00236374 0)
(0.149421 0.00297059 0)
(0.150365 0.00355138 0)
(0.151341 0.00410014 0)
(0.0999959 -0.000306211 0)
(0.100101 -0.000623113 0)
(0.100263 -0.000913589 0)
(0.100477 -0.00118541 0)
(0.100743 -0.0014425 0)
(0.101055 -0.00168721 0)
(0.101411 -0.00192151 0)
(0.101806 -0.00214712 0)
(0.102236 -0.00236541 0)
(0.1027 -0.00257746 0)
(0.103194 -0.00278418 0)
(0.103716 -0.00298628 0)
(0.104263 -0.00318435 0)
(0.104835 -0.00337886 0)
(0.105427 -0.0035702 0)
(0.10604 -0.00375867 0)
(0.106672 -0.00394448 0)
(0.10732 -0.00412782 0)
(0.107983 -0.0043088 0)
(0.10866 -0.00448748 0)
(0.10935 -0.00466391 0)
(0.110052 -0.00483806 0)
(0.110764 -0.0050099 0)
(0.111484 -0.00517935 0)
(0.112213 -0.00534632 0)
(0.112948 -0.00551066 0)
(0.11369 -0.00567224 0)
(0.114436 -0.00583086 0)
(0.115186 -0.00598633 0)
(0.115938 -0.00613842 0)
(0.116693 -0.00628689 0)
(0.117449 -0.00643146 0)
(0.118204 -0.00657185 0)
(0.118959 -0.00670773 0)
(0.119712 -0.00683878 0)
(0.120463 -0.00696462 0)
(0.121211 -0.00708487 0)
(0.121954 -0.00719913 0)
(0.122693 -0.00730695 0)
(0.123426 -0.00740786 0)
(0.124152 -0.00750136 0)
(0.124872 -0.00758693 0)
(0.125584 -0.007664 0)
(0.126288 -0.00773198 0)
(0.126983 -0.00779022 0)
(0.127669 -0.00783805 0)
(0.128345 -0.00787475 0)
(0.129011 -0.00789955 0)
(0.129666 -0.00791165 0)
(0.13031 -0.00791019 0)
(0.130943 -0.00789426 0)
(0.131565 -0.00786292 0)
(0.132176 -0.00781515 0)
(0.132775 -0.00774991 0)
(0.133364 -0.00766612 0)
(0.133941 -0.00756265 0)
(0.134509 -0.00743837 0)
(0.135067 -0.00729211 0)
(0.135617 -0.00712272 0)
(0.136159 -0.00692909 0)
(0.136695 -0.00671015 0)
(0.137227 -0.00646494 0)
(0.137756 -0.00619262 0)
(0.138284 -0.00589256 0)
(0.138815 -0.00556435 0)
(0.13935 -0.0052079 0)
(0.139893 -0.0048235 0)
(0.140447 -0.00441188 0)
(0.141014 -0.0039743 0)
(0.141599 -0.0035126 0)
(0.142204 -0.00302923 0)
(0.142832 -0.00252729 0)
(0.143487 -0.00201051 0)
(0.14417 -0.00148311 0)
(0.144885 -0.000949595 0)
(0.145631 -0.000414251 0)
(0.14641 0.000117521 0)
(0.147219 0.000639565 0)
(0.148057 0.00114538 0)
(0.148919 0.00162974 0)
(0.149801 0.00208918 0)
(0.0999919 -0.000334032 0)
(0.100095 -0.000681942 0)
(0.100252 -0.0010019 0)
(0.100458 -0.00130177 0)
(0.100713 -0.00158573 0)
(0.101015 -0.0018562 0)
(0.101358 -0.00211528 0)
(0.101739 -0.00236476 0)
(0.102155 -0.00260611 0)
(0.102604 -0.00284052 0)
(0.103081 -0.00306895 0)
(0.103586 -0.00329219 0)
(0.104116 -0.00351088 0)
(0.104669 -0.00372553 0)
(0.105242 -0.00393656 0)
(0.105835 -0.00414429 0)
(0.106446 -0.00434899 0)
(0.107073 -0.00455083 0)
(0.107715 -0.00474994 0)
(0.108369 -0.00494639 0)
(0.109036 -0.00514023 0)
(0.109714 -0.00533143 0)
(0.110402 -0.00551996 0)
(0.111098 -0.00570573 0)
(0.111801 -0.00588862 0)
(0.11251 -0.00606851 0)
(0.113225 -0.00624522 0)
(0.113944 -0.00641855 0)
(0.114667 -0.00658829 0)
(0.115392 -0.00675419 0)
(0.116118 -0.00691599 0)
(0.116845 -0.0070734 0)
(0.117571 -0.00722611 0)
(0.118297 -0.00737377 0)