/*--------------------------------*- C++ -*----------------------------------*\
| =========                 |                                                 |
| \\      /  F ield         | OpenFOAM: The Open Source CFD Toolbox           |
|  \\    /   O peration     | Version:  2112                                  |
|   \\  /    A nd           | Website:  www.openfoam.com                      |
|    \\/     M anipulation  |                                                 |
\*---------------------------------------------------------------------------*/
FoamFile
{
    version     2.0;
    format      ascii;
    arch        "LSB;label=32;scalar=64";
    class       volScalarField;
    location    "1";
    object      gradTx;
}
// * * * * * * * * * * * * * * * * * * * * * * * * * * * * * * * * * * * * * //

dimensions      [0 -1 0 1 0 0 0];

internalField   nonuniform List<scalar> 
512
(
0.0133256
0.037861
0.0568544
0.0687871
0.0739157
0.0735678
0.0694093
0.0629411
0.0553591
0.0474863
0.0398365
0.0326933
0.0261769
0.0202966
0.0149897
0.0101476
0.005634
0.00129772
-0.00301791
-0.00746489
-0.0121774
-0.0172519
-0.0227167
-0.0284872
-0.0343051
-0.0396677
-0.0437663
-0.0454823
-0.0435188
-0.0367572
-0.0248475
-0.0088158
0.0405091
0.114973
0.172336
0.208068
0.223126
0.221667
0.208813
0.189114
0.166162
0.142412
0.119391
0.0979302
0.0783778
0.0607521
0.0448577
0.0303644
0.0168606
0.00389008
-0.00901967
-0.0223279
-0.036442
-0.0516592
-0.0680755
-0.0854523
-0.103033
-0.119323
-0.1319
-0.137373
-0.131762
-0.111565
-0.0755787
-0.0268499
0.069342
0.196372
0.293248
0.352536
0.376489
0.37265
0.349951
0.316136
0.277196
0.237184
0.198578
0.162711
0.130116
0.100791
0.0743893
0.0503451
0.0279626
0.00647326
-0.0149183
-0.0369884
-0.0604323
-0.0857703
-0.1132
-0.142375
-0.172093
-0.199921
-0.221825
-0.232052
-0.223672
-0.190338
-0.129509
-0.0461323
0.101109
0.285324
0.423593
0.505872
0.536837
0.528408
0.493909
0.444493
0.388551
0.331649
0.27712
0.226709
0.181068
0.140127
0.103355
0.0699291
0.0388555
0.00904191
-0.0206417
-0.0513037
-0.0839512
-0.119365
-0.157899
-0.199175
-0.241646
-0.282024
-0.314698
-0.331416
-0.321854
-0.276015
-0.189094
-0.0676392
0.137413
0.385776
0.567982
0.672092
0.707082
0.690766
0.641654
0.574556
0.500219
0.425582
0.354687
0.289563
0.230888
0.178458
0.131515
0.0889506
0.0494529
0.0115914
-0.0261129
-0.0651208
-0.106782
-0.152188
-0.201926
-0.255699
-0.311749
-0.366088
-0.411603
-0.437396
-0.429153
-0.372005
-0.257324
-0.0925974
0.180383
0.502784
0.73195
0.855668
0.890214
0.861428
0.793969
0.70652
0.612053
0.518659
0.430881
0.350867
0.279201
0.215466
0.15862
0.107238
0.0596654
0.0141182
-0.031249
-0.0782723
-0.128682
-0.183939
-0.244964
-0.31168
-0.382317
-0.452404
-0.513493
-0.551943
-0.548738
-0.482427
-0.338071
-0.122658
0.233014
0.643121
0.922346
1.06163
1.08925
1.04189
0.951373
0.840346
0.723727
0.610431
0.505221
0.410161
0.325599
0.250809
0.184407
0.124611
0.0694006
0.0166198
-0.0359603
-0.0905751
-0.149376
-0.214264
-0.286603
-0.366716
-0.453069
-0.541026
-0.621109
-0.676976
-0.684166
-0.612412
-0.436576
-0.160169
0.299718
0.816211
1.1478
1.29564
1.30713
1.23329
1.11402
0.975697
0.834699
0.700297
0.577125
0.466921
0.369634
0.284124
0.2086
0.140882
0.0785624
0.019094
-0.0401505
-0.101829
-0.168555
-0.242744
-0.326328
-0.420233
-0.523474
-0.631686
-0.734856
-0.814257
-0.839405
-0.76847
-0.560208
-0.208633
0.387273
1.03557
1.41929
1.5639
1.54646
1.43624
1.28156
1.11186
0.944172
0.787493
0.64591
0.520559
0.410818
0.315023
0.230908
0.155858
0.0870507
0.0215387
-0.043718
-0.11182
-0.185878
-0.268896
-0.363508
-0.471465
-0.592701
-0.723684
-0.854636
-0.965189
-1.01874
-0.958909
-0.719655
-0.273492
0.506523
1.32116
1.75065
1.87285
1.80913
1.65053
1.45302
1.2477
1.05106
0.871072
0.710779
0.57042
0.448624
0.343093
0.251025
0.169332
0.09476
0.0239496
-0.0465583
-0.120318
-0.200973
-0.292175
-0.397391
-0.519434
-0.659563
-0.81578
-0.979615
-1.13047
-1.22651
-1.19426
-0.930833
-0.363544
0.675518
1.70314
2.15897
2.22848
2.0957
1.87478
1.62664
1.38157
1.15398
0.949908
0.770825
0.615782
0.482486
0.367902
0.268635
0.181093
0.101579
0.0263182
-0.0485681
-0.127092
-0.213443
-0.311979
-0.427114
-0.562946
-0.722488
-0.906071
-1.10795
-1.30955
-1.46645
-1.48747
-1.21801
-0.493556
0.925496
2.22821
2.66403
2.6349
2.40452
2.10611
1.79973
1.51129
1.25125
1.02269
0.82504
0.655864
0.511806
0.388996
0.283406
0.190921
0.107388
0.0286288
-0.0496505
-0.131906
-0.222882
-0.327667
-0.451714
-0.600602
-0.779493
-0.991896
-1.23648
-1.49991
-1.74045
-1.85339
-1.61901
-0.689258
1.31263
2.97019
3.28555
3.09185
2.73059
2.33973
1.9686
1.63416
1.34087
1.08797
0.87233
0.689837
0.53596
0.405908
0.295001
0.198589
0.112061
0.0308564
-0.0497206
-0.134541
-0.228887
-0.338576
-0.470163
-0.630837
-0.828222
-1.06979
-1.36042
-1.69612
-2.04646
-2.30627
-2.19393
-0.997175
1.94171
4.04793
4.03464
3.59094
3.06435
2.56872
2.12859
1.74702
1.42066
1.14418
0.911546
0.716843
0.554319
0.418168
0.30308
0.20387
0.115463
0.0329662
-0.0487112
-0.134796
-0.231077
-0.344052
-0.481403
-0.651983
-0.866012
-1.13555
-1.47324
-1.8888
-2.37526
-2.85236
-3.04004
-1.50448
3.01507
5.65581
4.89177
4.11107
3.39071
2.78418
2.27428
1.84641
1.48828
1.1897
0.941521
0.736015
0.566263
0.42531
0.307309
0.206543
0.117455
0.0349148
-0.0465792
-0.132503
-0.229116
-0.34348
-0.484407
-0.662363
-0.890044
-1.18441
-1.56675
-2.06391
-2.70656
-3.47102
-4.31705
-2.38012
4.9358
8.11512
5.75347
4.61652
3.689
2.97587
2.39983
1.9287
1.54134
1.2229
0.961085
0.746471
0.571195
0.42687
0.307354
0.206391
0.117878
0.036645
-0.0433204
-0.12754
-0.222743
-0.336317
-0.478229
-0.660415
-0.897529
-1.21143
-1.63173
-2.20285
-3.00762
-4.06948
-6.28993
-3.96161
)
;

boundaryField
{
    left
    {
        type            calculated;
        value           uniform 0;
    }
    right
    {
        type            calculated;
        value           uniform 0;
    }
    interface
    {
        type            calculated;
        value           nonuniform List<scalar> 
32
(
4.9358
8.11512
5.75347
4.61652
3.689
2.97587
2.39983
1.9287
1.54134
1.2229
0.961085
0.746471
0.571195
0.42687
0.307354
0.206391
0.117878
0.036645
-0.0433204
-0.12754
-0.222743
-0.336317
-0.478229
-0.660415
-0.897529
-1.21143
-1.63173
-2.20285
-3.00762
-4.06948
-6.28993
-3.96161
)
;
    }
    bottom
    {
        type            calculated;
        value           nonuniform List<scalar> 
32
(
0.0133256
0.037861
0.0568544
0.0687871
0.0739157
0.0735678
0.0694093
0.0629411
0.0553591
0.0474863
0.0398365
0.0326933
0.0261769
0.0202966
0.0149897
0.0101476
0.005634
0.00129772
-0.00301791
-0.00746489
-0.0121774
-0.0172519
-0.0227167
-0.0284872
-0.0343051
-0.0396677
-0.0437663
-0.0454823
-0.0435188
-0.0367572
-0.0248475
-0.0088158
)
;
    }
    defaultFaces
    {
        type            empty;
    }
}


// ************************************************************************* //
