/*--------------------------------*- C++ -*----------------------------------*\
| =========                 |                                                 |
| \\      /  F ield         | OpenFOAM: The Open Source CFD Toolbox           |
|  \\    /   O peration     | Version:  2112                                  |
|   \\  /    A nd           | Website:  www.openfoam.com                      |
|    \\/     M anipulation  |                                                 |
\*---------------------------------------------------------------------------*/
FoamFile
{
    version     2.0;
    format      ascii;
    arch        "LSB;label=32;scalar=64";
    class       volVectorField;
    location    "6";
    object      flux;
}
// * * * * * * * * * * * * * * * * * * * * * * * * * * * * * * * * * * * * * //

dimensions      [0 1 -1 1 0 0 0];

internalField   nonuniform List<vector> 
512
(
(0.0212709 -23.1133 0)
(0.0612096 -22.9418 0)
(0.0943007 -22.6202 0)
(0.118479 -22.1829 0)
(0.133782 -21.6679 0)
(0.141549 -21.1089 0)
(0.143577 -20.5326 0)
(0.141577 -19.9583 0)
(0.136925 -19.3987 0)
(0.130618 -18.862 0)
(0.12332 -18.3532 0)
(0.115441 -17.8752 0)
(0.107209 -17.4295 0)
(0.098731 -17.0174 0)
(0.0900375 -16.6396 0)
(0.0811103 -16.297 0)
(0.0719048 -15.9905 0)
(0.0623634 -15.7215 0)
(0.0524271 -15.4914 0)
(0.042048 -15.3019 0)
(0.0312052 -15.1548 0)
(0.0199281 -15.052 0)
(0.00832967 -14.9952 0)
(-0.00334766 -14.9854 0)
(-0.0146754 -15.0222 0)
(-0.0249794 -15.1033 0)
(-0.0333004 -15.223 0)
(-0.0384203 -15.3713 0)
(-0.0390282 -15.5326 0)
(-0.0340968 -15.6863 0)
(-0.0234667 -15.8082 0)
(-0.00839104 -15.8762 0)
(0.0644635 -23.1561 0)
(0.185341 -22.9793 0)
(0.285131 -22.6491 0)
(0.357655 -22.2024 0)
(0.403232 -21.6789 0)
(0.426083 -21.1132 0)
(0.431741 -20.5321 0)
(0.425395 -19.9546 0)
(0.41119 -19.3929 0)
(0.392103 -18.855 0)
(0.370107 -18.3455 0)
(0.346413 -17.867 0)
(0.32169 -17.4211 0)
(0.29625 -17.0087 0)
(0.270174 -16.6307 0)
(0.243404 -16.2878 0)
(0.215802 -15.9811 0)
(0.187192 -15.7117 0)
(0.157396 -15.4812 0)
(0.126264 -15.2911 0)
(0.093728 -15.1436 0)
(0.0598683 -15.0404 0)
(0.0250123 -14.9833 0)
(-0.010127 -14.9735 0)
(-0.0442791 -15.0109 0)
(-0.0754314 -15.0934 0)
(-0.100699 -15.2156 0)
(-0.116387 -15.3677 0)
(-0.118469 -15.5343 0)
(-0.103715 -15.6939 0)
(-0.0715119 -15.8215 0)
(-0.0255999 -15.893 0)
(0.109669 -23.2432 0)
(0.314745 -23.0552 0)
(0.482778 -22.7071 0)
(0.60357 -22.241 0)
(0.678364 -21.7004 0)
(0.714918 -21.1214 0)
(0.722907 -20.5308 0)
(0.711182 -19.9468 0)
(0.68668 -19.3812 0)
(0.65432 -18.8409 0)
(0.617325 -18.33 0)
(0.577649 -17.8507 0)
(0.536359 -17.4042 0)
(0.493936 -16.9914 0)
(0.450493 -16.6129 0)
(0.405915 -16.2696 0)
(0.359961 -15.9622 0)
(0.312329 -15.692 0)
(0.262709 -15.4606 0)
(0.210841 -15.2696 0)
(0.156593 -15.1211 0)
(0.100068 -15.017 0)
(0.0417762 -14.9594 0)
(-0.0171433 -14.9496 0)
(-0.0746236 -14.9881 0)
(-0.127347 -15.0733 0)
(-0.170487 -15.2005 0)
(-0.197752 -15.3604 0)
(-0.202116 -15.5374 0)
(-0.177698 -15.7094 0)
(-0.122984 -15.8485 0)
(-0.0441289 -15.9273 0)
(0.158441 -23.3772 0)
(0.453411 -23.1712 0)
(0.692238 -22.7945 0)
(0.860986 -22.2983 0)
(0.96306 -21.7315 0)
(1.0109 -21.1324 0)
(1.01901 -20.5277 0)
(1.00017 -19.9345 0)
(0.964142 -19.3631 0)
(0.917705 -18.8194 0)
(0.865224 -18.3066 0)
(0.809301 -17.8261 0)
(0.751323 -17.3789 0)
(0.691892 -16.9655 0)
(0.631111 -16.5864 0)
(0.568787 -16.2422 0)
(0.504558 -15.9339 0)
(0.43798 -15.6626 0)
(0.368602 -15.4298 0)
(0.296032 -15.2374 0)
(0.220044 -15.0873 0)
(0.140728 -14.9818 0)
(0.058714 -14.9233 0)
(-0.0245033 -14.9134 0)
(-0.106143 -14.9534 0)
(-0.181646 -15.0426 0)
(-0.244234 -15.1771 0)
(-0.284838 -15.3485 0)
(-0.292958 -15.5416 0)
(-0.259261 -15.7328 0)
(-0.18049 -15.8905 0)
(-0.0649996 -15.9812 0)
(0.212694 -23.5628 0)
(0.606113 -23.3298 0)
(0.919219 -22.9118 0)
(1.13507 -22.3733 0)
(1.26132 -21.7707 0)
(1.31682 -21.1448 0)
(1.32185 -20.5218 0)
(1.29346 -19.9167 0)
(1.24422 -19.3381 0)
(1.18261 -18.7902 0)
(1.114 -18.275 0)
(1.04148 -17.7931 0)
(0.966669 -17.345 0)
(0.890205 -16.9309 0)
(0.812136 -16.5509 0)
(0.732158 -16.2058 0)
(0.649764 -15.8962 0)
(0.564356 -15.6234 0)
(0.475317 -15.3888 0)
(0.382102 -15.1944 0)
(0.284353 -15.0422 0)
(0.182086 -14.9348 0)
(0.0759759 -14.8748 0)
(-0.0322362 -14.8647 0)
(-0.139178 -14.9063 0)
(-0.239159 -15.0002 0)
(-0.323467 -15.1442 0)
(-0.380037 -15.331 0)
(-0.39425 -15.5461 0)
(-0.352107 -15.7643 0)
(-0.247169 -15.9489 0)
(-0.0894774 -16.0574 0)
(0.27494 -23.8066 0)
(0.778896 -23.5347 0)
(1.17052 -23.0593 0)
(1.43157 -22.4642 0)
(1.57727 -21.8157 0)
(1.63536 -21.1566 0)
(1.63306 -20.5113 0)
(1.59198 -19.8923 0)
(1.52739 -19.3054 0)
(1.44929 -18.7528 0)
(1.36377 -18.235 0)
(1.27426 -17.7517 0)
(1.18245 -17.3027 0)
(1.08894 -16.8877 0)
(0.993666 -16.5068 0)
(0.89616 -16.1604 0)
(0.795754 -15.8493 0)
(0.691669 -15.5745 0)
(0.583108 -15.3377 0)
(0.469337 -15.1407 0)
(0.349822 -14.9858 0)
(0.224436 -14.8758 0)
(0.0937918 -14.8137 0)
(-0.04026 -14.8028 0)
(-0.173931 -14.8459 0)
(-0.300571 -14.9452 0)
(-0.409622 -15.1003 0)
(-0.48582 -15.3062 0)
(-0.509624 -15.5496 0)
(-0.460669 -15.8041 0)
(-0.327026 -16.0263 0)
(-0.119237 -16.1605 0)
(0.34867 -24.1184 0)
(0.979765 -23.7904 0)
(1.45446 -23.2367 0)
(1.7569 -22.5685 0)
(1.91513 -21.8633 0)
(1.969 -21.1648 0)
(1.95398 -20.4942 0)
(1.89639 -19.8599 0)
(1.81397 -19.2641 0)
(1.71784 -18.7067 0)
(1.61455 -18.1863 0)
(1.50763 -17.7017 0)
(1.39868 -17.2518 0)
(1.28815 -16.8359 0)
(1.17578 -16.4539 0)
(1.06092 -16.1061 0)
(0.942698 -15.7931 0)
(0.820139 -15.5161 0)
(0.692238 -15.2765 0)
(0.558044 -15.0763 0)
(0.416795 -14.918 0)
(0.268135 -14.8046 0)
(0.112494 -14.7397 0)
(-0.048348 -14.7271 0)
(-0.210413 -14.7713 0)
(-0.366358 -14.8761 0)
(-0.503975 -15.0436 0)
(-0.604695 -15.2719 0)
(-0.643175 -15.5502 0)
(-0.590421 -15.8517 0)
(-0.425398 -16.1254 0)
(-0.156616 -16.297 0)
(0.438963 -24.5122 0)
(1.21974 -24.1025 0)
(1.78146 -23.4428 0)
(2.1183 -22.682 0)
(2.27908 -21.9092 0)
(2.31988 -21.1662 0)
(2.28555 -20.4681 0)
(2.20702 -19.8178 0)
(2.10398 -19.2133 0)
(1.9882 -18.6513 0)
(1.86627 -18.1287 0)
(1.74154 -17.6429 0)
(1.61535 -17.1923 0)
(1.48786 -16.7756 0)
(1.35856 -16.3925 0)
(1.22656 -16.043 0)
(1.09077 -15.7279 0)
(0.949986 -15.4482 0)
(0.802984 -15.2053 0)
(0.64856 -15.0014 0)
(0.485663 -14.8389 0)
(0.313622 -14.7212 0)
(0.132536 -14.6523 0)
(-0.056094 -14.6372 0)
(-0.248395 -14.6814 0)
(-0.436702 -14.791 0)
(-0.607533 -14.9715 0)
(-0.739122 -15.2248 0)
(-0.799513 -15.5447 0)
(-0.748258 -15.906 0)
(-0.549677 -16.2498 0)
(-0.205039 -16.476 0)
(0.55355 -25.0085 0)
(1.51447 -24.477 0)
(2.1647 -23.6742 0)
(2.52372 -22.7985 0)
(2.67304 -21.9477 0)
(2.68956 -21.1562 0)
(2.62818 -20.43 0)
(2.5238 -19.7642 0)
(2.3972 -19.1517 0)
(2.26012 -18.586 0)
(2.11872 -18.0618 0)
(1.97584 -17.5754 0)
(1.83237 -17.1242 0)
(1.68806 -16.7068 0)
(1.54206 -16.3225 0)
(1.3932 -15.9713 0)
(1.24013 -15.6538 0)
(1.08144 -15.3709 0)
(0.915636 -15.1243 0)
(0.741244 -14.9159 0)
(0.556868 -14.7484 0)
(0.36142 -14.6254 0)
(0.154509 -14.5514 0)
(-0.0628798 -14.5322 0)
(-0.287338 -14.5749 0)
(-0.511385 -14.6881 0)
(-0.72088 -14.8808 0)
(-0.891336 -15.1609 0)
(-0.98373 -15.5287 0)
(-0.942937 -15.9643 0)
(-0.710429 -16.4033 0)
(-0.269739 -16.7113 0)
(0.704686 -25.6376 0)
(1.88688 -24.9195 0)
(2.62073 -23.9238 0)
(2.98157 -22.9088 0)
(3.10021 -21.9713 0)
(3.07872 -21.13 0)
(2.98158 -20.3768 0)
(2.84616 -19.6973 0)
(2.69307 -19.0785 0)
(2.53315 -18.5103 0)
(2.37157 -17.9855 0)
(2.21033 -17.499 0)
(2.04964 -17.0477 0)
(1.88873 -16.6297 0)
(1.72632 -16.2442 0)
(1.56094 -15.8911 0)
(1.39096 -15.5708 0)
(1.21473 -15.2845 0)
(1.0305 -15.0336 0)
(0.836484 -14.82 0)
(0.630901 -14.6467 0)
(0.41214 -14.5172 0)
(0.179157 -14.4365 0)
(-0.0678485 -14.4114 0)
(-0.326341 -14.4506 0)
(-0.58967 -14.5649 0)
(-0.843956 -14.7681 0)
(-1.06305 -15.0748 0)
(-1.2012 -15.4954 0)
(-1.18555 -16.0214 0)
(-0.923179 -16.5892 0)
(-0.359045 -17.0232 0)
(0.912623 -26.4463 0)
(2.37137 -25.4313 0)
(3.17003 -24.1782 0)
(3.49998 -22.9997 0)
(3.56241 -21.9708 0)
(3.48681 -21.0819 0)
(3.34457 -20.3051 0)
(3.17294 -19.6152 0)
(2.99067 -18.9926 0)
(2.80662 -18.4238 0)
(2.62437 -17.8996 0)
(2.44473 -17.4139 0)
(2.26702 -16.9629 0)
(2.08982 -16.5445 0)
(1.91139 -16.1578 0)
(1.72989 -15.8025 0)
(1.54342 -15.4793 0)
(1.35008 -15.1891 0)
(1.14787 -14.9333 0)
(0.934686 -14.714 0)
(0.708296 -14.5338 0)
(0.466484 -14.3965 0)
(0.207374 -14.3076 0)
(-0.0698875 -14.2744 0)
(-0.364083 -14.3071 0)
(-0.670171 -14.4193 0)
(-0.975791 -14.6293 0)
(-1.25497 -14.9598 0)
(-1.45705 -15.4355 0)
(-1.48983 -16.0677 0)
(-1.21133 -16.8082 0)
(-0.48675 -17.4433 0)
(1.21219 -27.5087 0)
(3.02089 -26.0026 0)
(3.8365 -24.414 0)
(4.08527 -23.0532 0)
(4.05914 -21.9354 0)
(3.91156 -21.0056 0)
(3.71491 -20.2118 0)
(3.50242 -19.5162 0)
(3.28875 -18.8933 0)
(3.07967 -18.3262 0)
(2.87656 -17.804 0)
(2.67868 -17.32 0)
(2.48433 -16.8698 0)
(2.29127 -16.4513 0)
(2.09729 -16.0634 0)
(1.90015 -15.7059 0)
(1.69767 -15.3795 0)
(1.48773 -15.085 0)
(1.26807 -14.8239 0)
(1.03627 -14.598 0)
(0.789626 -14.4099 0)
(0.525227 -14.2636 0)
(0.2402 -14.1645 0)
(-0.0676269 -14.1208 0)
(-0.398795 -14.1436 0)
(-0.750738 -14.2491 0)
(-1.11419 -14.46 0)
(-1.46614 -14.8083 0)
(-1.75515 -15.3361 0)
(-1.87192 -16.0867 0)
(-1.61098 -17.0533 0)
(-0.676601 -18.022 0)
(1.66568 -28.9476 0)
(3.91868 -26.5945 0)
(4.64469 -24.5929 0)
(4.7393 -23.046 0)
(4.58624 -21.853 0)
(4.3486 -20.8953 0)
(4.08924 -20.094 0)
(3.8322 -19.3991 0)
(3.58571 -18.78 0)
(3.35127 -18.2173 0)
(3.12748 -17.6989 0)
(2.91181 -17.2176 0)
(2.70136 -16.7688 0)
(2.49303 -16.3504 0)
(2.28406 -15.9614 0)
(2.07183 -15.6015 0)
(1.85387 -15.2716 0)
(1.6279 -14.9725 0)
(1.39138 -14.7055 0)
(1.14165 -14.4725 0)
(0.875479 -14.2756 0)
(0.58921 -14.1188 0)
(0.278803 -14.0074 0)
(-0.05946 -13.9503 0)
(-0.428248 -13.9593 0)
(-0.828371 -14.0523 0)
(-1.2554 -14.2563 0)
(-1.69301 -14.6118 0)
(-2.09623 -15.1808 0)
(-2.34843 -16.0514 0)
(-2.17898 -17.2977 0)
(-0.971086 -18.8426 0)
(2.38877 -30.9749 0)
(5.19823 -27.0985 0)
(5.61072 -24.6582 0)
(5.45524 -22.9503 0)
(5.13448 -21.7117 0)
(4.79109 -20.746 0)
(4.46301 -19.9494 0)
(4.15938 -19.2631 0)
(3.87968 -18.6526 0)
(3.62024 -18.0973 0)
(3.37641 -17.5845 0)
(3.1437 -17.107 0)
(2.91793 -16.6603 0)
(2.69502 -16.242 0)
(2.47172 -15.852 0)
(2.24502 -15.4895 0)
(2.01216 -15.156 0)
(1.7708 -14.8519 0)
(1.5181 -14.5785 0)
(1.25123 -14.3378 0)
(0.966447 -14.131 0)
(0.659313 -13.9625 0)
(0.324453 -13.8366 0)
(-0.043587 -13.7632 0)
(-0.449801 -13.7538 0)
(-0.899215 -13.8276 0)
(-1.3939 -14.0144 0)
(-1.92843 -14.3616 0)
(-2.47497 -14.95 0)
(-2.93036 -15.9219 0)
(-3.00659 -17.4672 0)
(-1.44906 -20.0492 0)
(3.60388 -33.9712 0)
(7.07702 -27.2435 0)
(6.71875 -24.5403 0)
(6.21252 -22.7374 0)
(5.6884 -21.5023 0)
(5.22975 -20.5544 0)
(4.83068 -19.7774 0)
(4.48061 -19.1082 0)
(4.16862 -18.5115 0)
(3.88536 -17.9667 0)
(3.62262 -17.4612 0)
(3.3739 -16.9888 0)
(3.13386 -16.5446 0)
(2.89717 -16.1266 0)
(2.66031 -15.7357 0)
(2.41984 -15.3702 0)
(2.17267 -15.0329 0)
(1.91664 -14.7235 0)
(1.64845 -14.4432 0)
(1.36539 -14.1944 0)
(1.0631 -13.9767 0)
(0.736444 -13.7954 0)
(0.378489 -13.6523 0)
(-0.0180865 -13.5597 0)
(-0.460477 -13.5272 0)
(-0.95867 -13.5744 0)
(-1.52238 -13.7321 0)
(-2.16079 -14.0507 0)
(-2.8764 -14.6229 0)
(-3.60705 -15.6488 0)
(-4.24263 -17.3771 0)
(-2.26209 -21.9008 0)
(5.75265 -38.6495 0)
(9.91366 -26.3823 0)
(7.86377 -24.1975 0)
(6.97427 -22.3824 0)
(6.22596 -21.2211 0)
(5.65354 -20.3201 0)
(5.18612 -19.5784 0)
(4.79234 -18.9351 0)
(4.45041 -18.3573 0)
(4.14539 -17.8263 0)
(3.86537 -17.3296 0)
(3.602 -16.8635 0)
(3.34903 -16.4223 0)
(3.09946 -16.0044 0)
(2.84991 -15.613 0)
(2.59643 -15.2439 0)
(2.33551 -14.9026 0)
(2.06563 -14.5878 0)
(1.78264 -14.2999 0)
(1.48448 -14.0432 0)
(1.16597 -13.8131 0)
(0.821509 -13.6185 0)
(0.442283 -13.4552 0)
(0.0189633 -13.3411 0)
(-0.457115 -13.2805 0)
(-1.00166 -13.2932 0)
(-1.63209 -13.4093 0)
(-2.37381 -13.6762 0)
(-3.274 -14.182 0)
(-4.30747 -15.1998 0)
(-6.13262 -16.5877 0)
(-3.71093 -24.883 0)
)
;

boundaryField
{
    left
    {
        type            calculated;
        value           nonuniform List<vector> 
16
(
(0 -23.1133 0)
(0 -23.1561 0)
(0 -23.2432 0)
(0 -23.3772 0)
(0 -23.5628 0)
(0 -23.8066 0)
(0 -24.1184 0)
(0 -24.5122 0)
(0 -25.0085 0)
(0 -25.6376 0)
(0 -26.4463 0)
(0 -27.5087 0)
(0 -28.9476 0)
(0 -30.9749 0)
(0 -33.9712 0)
(0 -38.6495 0)
)
;
    }
    right
    {
        type            calculated;
        value           nonuniform List<vector> 
16
(
(0 -15.8762 0)
(0 -15.893 0)
(0 -15.9273 0)
(0 -15.9812 0)
(0 -16.0574 0)
(0 -16.1605 0)
(0 -16.297 0)
(0 -16.476 0)
(0 -16.7113 0)
(0 -17.0232 0)
(0 -17.4433 0)
(0 -18.022 0)
(0 -18.8426 0)
(0 -20.0492 0)
(0 -21.9008 0)
(0 -24.883 0)
)
;
    }
    interface
    {
        type            calculated;
        value           nonuniform List<vector> 
32
(
(5.75265 -41.5258 0)
(9.91366 -25.5865 0)
(7.86377 -23.9684 0)
(6.97427 -22.1668 0)
(6.22596 -21.0625 0)
(5.65354 -20.1924 0)
(5.18612 -19.4723 0)
(4.79234 -18.8443 0)
(4.45041 -18.2771 0)
(4.14539 -17.7538 0)
(3.86537 -17.2619 0)
(3.602 -16.7992 0)
(3.34903 -16.3596 0)
(3.09946 -15.9416 0)
(2.84991 -15.5501 0)
(2.59643 -15.1789 0)
(2.33551 -14.8358 0)
(2.06563 -14.5181 0)
(1.78264 -14.2263 0)
(1.48448 -13.9657 0)
(1.16597 -13.7291 0)
(0.821509 -13.5278 0)
(0.442283 -13.3536 0)
(0.0189633 -13.2281 0)
(-0.457115 -13.1522 0)
(-1.00166 -13.1458 0)
(-1.63209 -13.2379 0)
(-2.37381 -13.473 0)
(-3.274 -13.9313 0)
(-4.30747 -14.9298 0)
(-6.13262 -15.9409 0)
(-3.71093 -26.7363 0)
)
;
    }
    bottom
    {
        type            calculated;
        value           nonuniform List<vector> 
32
(
(0.0212709 -23.1026 0)
(0.0612096 -22.9325 0)
(0.0943007 -22.613 0)
(0.118479 -22.1781 0)
(0.133782 -21.6651 0)
(0.141549 -21.1078 0)
(0.143577 -20.5327 0)
(0.141577 -19.9592 0)
(0.136925 -19.4001 0)
(0.130618 -18.8638 0)
(0.12332 -18.3552 0)
(0.115441 -17.8772 0)
(0.107209 -17.4316 0)
(0.098731 -17.0195 0)
(0.0900375 -16.6418 0)
(0.0811103 -16.2992 0)
(0.0719048 -15.9929 0)
(0.0623634 -15.724 0)
(0.0524271 -15.494 0)
(0.042048 -15.3046 0)
(0.0312052 -15.1576 0)
(0.0199281 -15.055 0)
(0.00832967 -14.9982 0)
(-0.00334766 -14.9883 0)
(-0.0146754 -15.025 0)
(-0.0249794 -15.1057 0)
(-0.0333004 -15.2248 0)
(-0.0384203 -15.3721 0)
(-0.0390282 -15.5322 0)
(-0.0340968 -15.6843 0)
(-0.0234667 -15.805 0)
(-0.00839104 -15.8721 0)
)
;
    }
    defaultFaces
    {
        type            empty;
    }
}


// ************************************************************************* //
