/*--------------------------------*- C++ -*----------------------------------*\
| =========                 |                                                 |
| \\      /  F ield         | OpenFOAM: The Open Source CFD Toolbox           |
|  \\    /   O peration     | Version:  2112                                  |
|   \\  /    A nd           | Website:  www.openfoam.com                      |
|    \\/     M anipulation  |                                                 |
\*---------------------------------------------------------------------------*/
FoamFile
{
    version     2.0;
    format      ascii;
    arch        "LSB;label=32;scalar=64";
    class       volScalarField;
    location    "6";
    object      gradTx;
}
// * * * * * * * * * * * * * * * * * * * * * * * * * * * * * * * * * * * * * //

dimensions      [0 -1 0 1 0 0 0];

internalField   nonuniform List<scalar> 
512
(
0.0212709
0.0612096
0.0943007
0.118479
0.133782
0.141549
0.143577
0.141577
0.136925
0.130618
0.12332
0.115441
0.107209
0.098731
0.0900375
0.0811103
0.0719048
0.0623634
0.0524271
0.042048
0.0312052
0.0199281
0.00832967
-0.00334766
-0.0146754
-0.0249794
-0.0333004
-0.0384203
-0.0390282
-0.0340968
-0.0234667
-0.00839104
0.0644635
0.185341
0.285131
0.357655
0.403232
0.426083
0.431741
0.425395
0.41119
0.392103
0.370107
0.346413
0.32169
0.29625
0.270174
0.243404
0.215802
0.187192
0.157396
0.126264
0.093728
0.0598683
0.0250123
-0.010127
-0.0442791
-0.0754314
-0.100699
-0.116387
-0.118469
-0.103715
-0.0715119
-0.0255999
0.109669
0.314745
0.482778
0.60357
0.678364
0.714918
0.722907
0.711182
0.68668
0.65432
0.617325
0.577649
0.536359
0.493936
0.450493
0.405915
0.359961
0.312329
0.262709
0.210841
0.156593
0.100068
0.0417762
-0.0171433
-0.0746236
-0.127347
-0.170487
-0.197752
-0.202116
-0.177698
-0.122984
-0.0441289
0.158441
0.453411
0.692238
0.860986
0.96306
1.0109
1.01901
1.00017
0.964142
0.917705
0.865224
0.809301
0.751323
0.691892
0.631111
0.568787
0.504558
0.43798
0.368602
0.296032
0.220044
0.140728
0.058714
-0.0245033
-0.106143
-0.181646
-0.244234
-0.284838
-0.292958
-0.259261
-0.18049
-0.0649996
0.212694
0.606113
0.919219
1.13507
1.26132
1.31682
1.32185
1.29346
1.24422
1.18261
1.114
1.04148
0.966669
0.890205
0.812136
0.732158
0.649764
0.564356
0.475317
0.382102
0.284353
0.182086
0.0759759
-0.0322362
-0.139178
-0.239159
-0.323467
-0.380037
-0.39425
-0.352107
-0.247169
-0.0894774
0.27494
0.778896
1.17052
1.43157
1.57727
1.63536
1.63306
1.59198
1.52739
1.44929
1.36377
1.27426
1.18245
1.08894
0.993666
0.89616
0.795754
0.691669
0.583108
0.469337
0.349822
0.224436
0.0937918
-0.04026
-0.173931
-0.300571
-0.409622
-0.48582
-0.509624
-0.460669
-0.327026
-0.119237
0.34867
0.979765
1.45446
1.7569
1.91513
1.969
1.95398
1.89639
1.81397
1.71784
1.61455
1.50763
1.39868
1.28815
1.17578
1.06092
0.942698
0.820139
0.692238
0.558044
0.416795
0.268135
0.112494
-0.048348
-0.210413
-0.366358
-0.503975
-0.604695
-0.643175
-0.590421
-0.425398
-0.156616
0.438963
1.21974
1.78146
2.1183
2.27908
2.31988
2.28555
2.20702
2.10398
1.9882
1.86627
1.74154
1.61535
1.48786
1.35856
1.22656
1.09077
0.949986
0.802984
0.64856
0.485663
0.313622
0.132536
-0.056094
-0.248395
-0.436702
-0.607533
-0.739122
-0.799513
-0.748258
-0.549677
-0.205039
0.55355
1.51447
2.1647
2.52372
2.67304
2.68956
2.62818
2.5238
2.3972
2.26012
2.11872
1.97584
1.83237
1.68806
1.54206
1.3932
1.24013
1.08144
0.915636
0.741244
0.556868
0.36142
0.154509
-0.0628798
-0.287338
-0.511385
-0.72088
-0.891336
-0.98373
-0.942937
-0.710429
-0.269739
0.704686
1.88688
2.62073
2.98157
3.10021
3.07872
2.98158
2.84616
2.69307
2.53315
2.37157
2.21033
2.04964
1.88873
1.72632
1.56094
1.39096
1.21473
1.0305
0.836484
0.630901
0.41214
0.179157
-0.0678485
-0.326341
-0.58967
-0.843956
-1.06305
-1.2012
-1.18555
-0.923179
-0.359045
0.912623
2.37137
3.17003
3.49998
3.56241
3.48681
3.34457
3.17294
2.99067
2.80662
2.62437
2.44473
2.26702
2.08982
1.91139
1.72989
1.54342
1.35008
1.14787
0.934686
0.708296
0.466484
0.207374
-0.0698875
-0.364083
-0.670171
-0.975791
-1.25497
-1.45705
-1.48983
-1.21133
-0.48675
1.21219
3.02089
3.8365
4.08527
4.05914
3.91156
3.71491
3.50242
3.28875
3.07967
2.87656
2.67868
2.48433
2.29127
2.09729
1.90015
1.69767
1.48773
1.26807
1.03627
0.789626
0.525227
0.2402
-0.0676269
-0.398795
-0.750738
-1.11419
-1.46614
-1.75515
-1.87192
-1.61098
-0.676601
1.66568
3.91868
4.64469
4.7393
4.58624
4.3486
4.08924
3.8322
3.58571
3.35127
3.12748
2.91181
2.70136
2.49303
2.28406
2.07183
1.85387
1.6279
1.39138
1.14165
0.875479
0.58921
0.278803
-0.05946
-0.428248
-0.828371
-1.2554
-1.69301
-2.09623
-2.34843
-2.17898
-0.971086
2.38877
5.19823
5.61072
5.45524
5.13448
4.79109
4.46301
4.15938
3.87968
3.62024
3.37641
3.1437
2.91793
2.69502
2.47172
2.24502
2.01216
1.7708
1.5181
1.25123
0.966447
0.659313
0.324453
-0.043587
-0.449801
-0.899215
-1.3939
-1.92843
-2.47497
-2.93036
-3.00659
-1.44906
3.60388
7.07702
6.71875
6.21252
5.6884
5.22975
4.83068
4.48061
4.16862
3.88536
3.62262
3.3739
3.13386
2.89717
2.66031
2.41984
2.17267
1.91664
1.64845
1.36539
1.0631
0.736444
0.378489
-0.0180865
-0.460477
-0.95867
-1.52238
-2.16079
-2.8764
-3.60705
-4.24263
-2.26209
5.75265
9.91366
7.86377
6.97427
6.22596
5.65354
5.18612
4.79234
4.45041
4.14539
3.86537
3.602
3.34903
3.09946
2.84991
2.59643
2.33551
2.06563
1.78264
1.48448
1.16597
0.821509
0.442283
0.0189633
-0.457115
-1.00166
-1.63209
-2.37381
-3.274
-4.30747
-6.13262
-3.71093
)
;

boundaryField
{
    left
    {
        type            calculated;
        value           uniform 0;
    }
    right
    {
        type            calculated;
        value           uniform 0;
    }
    interface
    {
        type            calculated;
        value           nonuniform List<scalar> 
32
(
5.75265
9.91366
7.86377
6.97427
6.22596
5.65354
5.18612
4.79234
4.45041
4.14539
3.86537
3.602
3.34903
3.09946
2.84991
2.59643
2.33551
2.06563
1.78264
1.48448
1.16597
0.821509
0.442283
0.0189633
-0.457115
-1.00166
-1.63209
-2.37381
-3.274
-4.30747
-6.13262
-3.71093
)
;
    }
    bottom
    {
        type            calculated;
        value           nonuniform List<scalar> 
32
(
0.0212709
0.0612096
0.0943007
0.118479
0.133782
0.141549
0.143577
0.141577
0.136925
0.130618
0.12332
0.115441
0.107209
0.098731
0.0900375
0.0811103
0.0719048
0.0623634
0.0524271
0.042048
0.0312052
0.0199281
0.00832967
-0.00334766
-0.0146754
-0.0249794
-0.0333004
-0.0384203
-0.0390282
-0.0340968
-0.0234667
-0.00839104
)
;
    }
    defaultFaces
    {
        type            empty;
    }
}


// ************************************************************************* //
