/*--------------------------------*- C++ -*----------------------------------*\
| =========                 |                                                 |
| \\      /  F ield         | OpenFOAM: The Open Source CFD Toolbox           |
|  \\    /   O peration     | Version:  2112                                  |
|   \\  /    A nd           | Website:  www.openfoam.com                      |
|    \\/     M anipulation  |                                                 |
\*---------------------------------------------------------------------------*/
FoamFile
{
    version     2.0;
    format      ascii;
    arch        "LSB;label=32;scalar=64";
    class       volScalarField;
    location    "6";
    object      gradTy;
}
// * * * * * * * * * * * * * * * * * * * * * * * * * * * * * * * * * * * * * //

dimensions      [0 -1 0 1 0 0 0];

internalField   nonuniform List<scalar> 
512
(
-23.1133
-22.9418
-22.6202
-22.1829
-21.6679
-21.1089
-20.5326
-19.9583
-19.3987
-18.862
-18.3532
-17.8752
-17.4295
-17.0174
-16.6396
-16.297
-15.9905
-15.7215
-15.4914
-15.3019
-15.1548
-15.052
-14.9952
-14.9854
-15.0222
-15.1033
-15.223
-15.3713
-15.5326
-15.6863
-15.8082
-15.8762
-23.1561
-22.9793
-22.6491
-22.2024
-21.6789
-21.1132
-20.5321
-19.9546
-19.3929
-18.855
-18.3455
-17.867
-17.4211
-17.0087
-16.6307
-16.2878
-15.9811
-15.7117
-15.4812
-15.2911
-15.1436
-15.0404
-14.9833
-14.9735
-15.0109
-15.0934
-15.2156
-15.3677
-15.5343
-15.6939
-15.8215
-15.893
-23.2432
-23.0552
-22.7071
-22.241
-21.7004
-21.1214
-20.5308
-19.9468
-19.3812
-18.8409
-18.33
-17.8507
-17.4042
-16.9914
-16.6129
-16.2696
-15.9622
-15.692
-15.4606
-15.2696
-15.1211
-15.017
-14.9594
-14.9496
-14.9881
-15.0733
-15.2005
-15.3604
-15.5374
-15.7094
-15.8485
-15.9273
-23.3772
-23.1712
-22.7945
-22.2983
-21.7315
-21.1324
-20.5277
-19.9345
-19.3631
-18.8194
-18.3066
-17.8261
-17.3789
-16.9655
-16.5864
-16.2422
-15.9339
-15.6626
-15.4298
-15.2374
-15.0873
-14.9818
-14.9233
-14.9134
-14.9534
-15.0426
-15.1771
-15.3485
-15.5416
-15.7328
-15.8905
-15.9812
-23.5628
-23.3298
-22.9118
-22.3733
-21.7707
-21.1448
-20.5218
-19.9167
-19.3381
-18.7902
-18.275
-17.7931
-17.345
-16.9309
-16.5509
-16.2058
-15.8962
-15.6234
-15.3888
-15.1944
-15.0422
-14.9348
-14.8748
-14.8647
-14.9063
-15.0002
-15.1442
-15.331
-15.5461
-15.7643
-15.9489
-16.0574
-23.8066
-23.5347
-23.0593
-22.4642
-21.8157
-21.1566
-20.5113
-19.8923
-19.3054
-18.7528
-18.235
-17.7517
-17.3027
-16.8877
-16.5068
-16.1604
-15.8493
-15.5745
-15.3377
-15.1407
-14.9858
-14.8758
-14.8137
-14.8028
-14.8459
-14.9452
-15.1003
-15.3062
-15.5496
-15.8041
-16.0263
-16.1605
-24.1184
-23.7904
-23.2367
-22.5685
-21.8633
-21.1648
-20.4942
-19.8599
-19.2641
-18.7067
-18.1863
-17.7017
-17.2518
-16.8359
-16.4539
-16.1061
-15.7931
-15.5161
-15.2765
-15.0763
-14.918
-14.8046
-14.7397
-14.7271
-14.7713
-14.8761
-15.0436
-15.2719
-15.5502
-15.8517
-16.1254
-16.297
-24.5122
-24.1025
-23.4428
-22.682
-21.9092
-21.1662
-20.4681
-19.8178
-19.2133
-18.6513
-18.1287
-17.6429
-17.1923
-16.7756
-16.3925
-16.043
-15.7279
-15.4482
-15.2053
-15.0014
-14.8389
-14.7212
-14.6523
-14.6372
-14.6814
-14.791
-14.9715
-15.2248
-15.5447
-15.906
-16.2498
-16.476
-25.0085
-24.477
-23.6742
-22.7985
-21.9477
-21.1562
-20.43
-19.7642
-19.1517
-18.586
-18.0618
-17.5754
-17.1242
-16.7068
-16.3225
-15.9713
-15.6538
-15.3709
-15.1243
-14.9159
-14.7484
-14.6254
-14.5514
-14.5322
-14.5749
-14.6881
-14.8808
-15.1609
-15.5287
-15.9643
-16.4033
-16.7113
-25.6376
-24.9195
-23.9238
-22.9088
-21.9713
-21.13
-20.3768
-19.6973
-19.0785
-18.5103
-17.9855
-17.499
-17.0477
-16.6297
-16.2442
-15.8911
-15.5708
-15.2845
-15.0336
-14.82
-14.6467
-14.5172
-14.4365
-14.4114
-14.4506
-14.5649
-14.7681
-15.0748
-15.4954
-16.0214
-16.5892
-17.0232
-26.4463
-25.4313
-24.1782
-22.9997
-21.9708
-21.0819
-20.3051
-19.6152
-18.9926
-18.4238
-17.8996
-17.4139
-16.9629
-16.5445
-16.1578
-15.8025
-15.4793
-15.1891
-14.9333
-14.714
-14.5338
-14.3965
-14.3076
-14.2744
-14.3071
-14.4193
-14.6293
-14.9598
-15.4355
-16.0677
-16.8082
-17.4433
-27.5087
-26.0026
-24.414
-23.0532
-21.9354
-21.0056
-20.2118
-19.5162
-18.8933
-18.3262
-17.804
-17.32
-16.8698
-16.4513
-16.0634
-15.7059
-15.3795
-15.085
-14.8239
-14.598
-14.4099
-14.2636
-14.1645
-14.1208
-14.1436
-14.2491
-14.46
-14.8083
-15.3361
-16.0867
-17.0533
-18.022
-28.9476
-26.5945
-24.5929
-23.046
-21.853
-20.8953
-20.094
-19.3991
-18.78
-18.2173
-17.6989
-17.2176
-16.7688
-16.3504
-15.9614
-15.6015
-15.2716
-14.9725
-14.7055
-14.4725
-14.2756
-14.1188
-14.0074
-13.9503
-13.9593
-14.0523
-14.2563
-14.6118
-15.1808
-16.0514
-17.2977
-18.8426
-30.9749
-27.0985
-24.6582
-22.9503
-21.7117
-20.746
-19.9494
-19.2631
-18.6526
-18.0973
-17.5845
-17.107
-16.6603
-16.242
-15.852
-15.4895
-15.156
-14.8519
-14.5785
-14.3378
-14.131
-13.9625
-13.8366
-13.7632
-13.7538
-13.8276
-14.0144
-14.3616
-14.95
-15.9219
-17.4672
-20.0492
-33.9712
-27.2435
-24.5403
-22.7374
-21.5023
-20.5544
-19.7774
-19.1082
-18.5115
-17.9667
-17.4612
-16.9888
-16.5446
-16.1266
-15.7357
-15.3702
-15.0329
-14.7235
-14.4432
-14.1944
-13.9767
-13.7954
-13.6523
-13.5597
-13.5272
-13.5744
-13.7321
-14.0507
-14.6229
-15.6488
-17.3771
-21.9008
-38.6495
-26.3823
-24.1975
-22.3824
-21.2211
-20.3201
-19.5784
-18.9351
-18.3573
-17.8263
-17.3296
-16.8635
-16.4223
-16.0044
-15.613
-15.2439
-14.9026
-14.5878
-14.2999
-14.0432
-13.8131
-13.6185
-13.4552
-13.3411
-13.2805
-13.2932
-13.4093
-13.6762
-14.182
-15.1998
-16.5877
-24.883
)
;

boundaryField
{
    left
    {
        type            calculated;
        value           nonuniform List<scalar> 
16
(
-23.1133
-23.1561
-23.2432
-23.3772
-23.5628
-23.8066
-24.1184
-24.5122
-25.0085
-25.6376
-26.4463
-27.5087
-28.9476
-30.9749
-33.9712
-38.6495
)
;
    }
    right
    {
        type            calculated;
        value           nonuniform List<scalar> 
16
(
-15.8762
-15.893
-15.9273
-15.9812
-16.0574
-16.1605
-16.297
-16.476
-16.7113
-17.0232
-17.4433
-18.022
-18.8426
-20.0492
-21.9008
-24.883
)
;
    }
    interface
    {
        type            calculated;
        value           nonuniform List<scalar> 
32
(
-41.5258
-25.5865
-23.9684
-22.1668
-21.0625
-20.1924
-19.4723
-18.8443
-18.2771
-17.7538
-17.2619
-16.7992
-16.3596
-15.9416
-15.5501
-15.1789
-14.8358
-14.5181
-14.2263
-13.9657
-13.7291
-13.5278
-13.3536
-13.2281
-13.1522
-13.1458
-13.2379
-13.473
-13.9313
-14.9298
-15.9409
-26.7363
)
;
    }
    bottom
    {
        type            calculated;
        value           nonuniform List<scalar> 
32
(
-23.1026
-22.9325
-22.613
-22.1781
-21.6651
-21.1078
-20.5327
-19.9592
-19.4001
-18.8638
-18.3552
-17.8772
-17.4316
-17.0195
-16.6418
-16.2992
-15.9929
-15.724
-15.494
-15.3046
-15.1576
-15.055
-14.9982
-14.9883
-15.025
-15.1057
-15.2248
-15.3721
-15.5322
-15.6843
-15.805
-15.8721
)
;
    }
    defaultFaces
    {
        type            empty;
    }
}


// ************************************************************************* //
