/*--------------------------------*- C++ -*----------------------------------*\
| =========                 |                                                 |
| \\      /  F ield         | OpenFOAM: The Open Source CFD Toolbox           |
|  \\    /   O peration     | Version:  2112                                  |
|   \\  /    A nd           | Website:  www.openfoam.com                      |
|    \\/     M anipulation  |                                                 |
\*---------------------------------------------------------------------------*/
FoamFile
{
    version     2.0;
    format      ascii;
    arch        "LSB;label=32;scalar=64";
    class       volScalarField;
    location    "6";
    object      T;
}
// * * * * * * * * * * * * * * * * * * * * * * * * * * * * * * * * * * * * * //

dimensions      [0 0 0 1 0 0 0];

internalField   nonuniform List<scalar> 
512
(
309.82
309.821
309.823
309.827
309.831
309.835
309.84
309.844
309.848
309.853
309.857
309.86
309.864
309.867
309.87
309.873
309.875
309.877
309.879
309.88
309.882
309.882
309.883
309.883
309.883
309.882
309.881
309.88
309.879
309.877
309.877
309.876
309.458
309.462
309.47
309.48
309.492
309.505
309.519
309.532
309.545
309.558
309.57
309.581
309.592
309.601
309.61
309.618
309.625
309.632
309.637
309.641
309.645
309.647
309.649
309.649
309.648
309.646
309.643
309.64
309.636
309.632
309.629
309.628
309.096
309.103
309.116
309.133
309.153
309.175
309.198
309.22
309.242
309.263
309.283
309.302
309.319
309.336
309.35
309.364
309.376
309.386
309.395
309.403
309.408
309.412
309.415
309.415
309.414
309.41
309.406
309.4
309.393
309.387
309.382
309.379
308.732
308.742
308.76
308.785
308.814
308.845
308.877
308.909
308.94
308.969
308.997
309.023
309.048
309.07
309.091
309.11
309.126
309.141
309.154
309.164
309.172
309.178
309.181
309.182
309.18
309.175
309.168
309.16
309.15
309.141
309.134
309.13
308.365
308.379
308.403
308.436
308.474
308.515
308.556
308.598
308.637
308.675
308.711
308.745
308.776
308.805
308.832
308.856
308.878
308.897
308.913
308.926
308.937
308.944
308.948
308.949
308.946
308.94
308.931
308.92
308.908
308.895
308.886
308.88
307.996
308.013
308.044
308.086
308.134
308.184
308.236
308.286
308.335
308.382
308.426
308.467
308.506
308.541
308.574
308.603
308.63
308.653
308.673
308.689
308.702
308.711
308.716
308.717
308.714
308.706
308.695
308.681
308.665
308.649
308.636
308.628
307.621
307.643
307.683
307.734
307.792
307.854
307.915
307.976
308.034
308.089
308.141
308.19
308.236
308.278
308.316
308.351
308.382
308.41
308.434
308.453
308.469
308.479
308.485
308.486
308.482
308.473
308.459
308.442
308.422
308.401
308.385
308.375
307.242
307.269
307.318
307.381
307.45
307.523
307.595
307.666
307.733
307.797
307.858
307.914
307.966
308.015
308.059
308.1
308.136
308.168
308.195
308.218
308.236
308.249
308.256
308.257
308.252
308.241
308.225
308.203
308.179
308.153
308.132
308.119
306.855
306.89
306.95
307.025
307.108
307.192
307.276
307.357
307.434
307.506
307.575
307.639
307.698
307.753
307.804
307.85
307.891
307.927
307.958
307.984
308.005
308.019
308.027
308.029
308.023
308.011
307.992
307.966
307.936
307.904
307.877
307.86
306.46
306.504
306.578
306.668
306.765
306.862
306.957
307.048
307.135
307.217
307.293
307.365
307.431
307.493
307.549
307.601
307.647
307.688
307.723
307.752
307.775
307.792
307.801
307.803
307.797
307.782
307.76
307.73
307.693
307.654
307.619
307.597
306.054
306.111
306.202
306.309
306.421
306.532
306.639
306.741
306.837
306.928
307.013
307.092
307.166
307.234
307.296
307.353
307.404
307.45
307.489
307.521
307.547
307.566
307.576
307.579
307.572
307.556
307.53
307.495
307.452
307.404
307.358
307.328
305.634
305.71
305.823
305.949
306.078
306.203
306.322
306.435
306.541
306.641
306.734
306.821
306.901
306.976
307.044
307.107
307.163
307.213
307.256
307.292
307.321
307.342
307.354
307.357
307.35
307.332
307.303
307.262
307.211
307.152
307.094
307.052
305.195
305.299
305.439
305.589
305.736
305.876
306.007
306.131
306.247
306.355
306.456
306.551
306.638
306.72
306.794
306.862
306.924
306.978
307.025
307.065
307.097
307.12
307.134
307.137
307.13
307.11
307.078
307.032
306.972
306.901
306.825
306.765
304.729
304.879
305.054
305.229
305.395
305.55
305.695
305.829
305.954
306.072
306.181
306.283
306.377
306.465
306.546
306.619
306.686
306.745
306.797
306.84
306.875
306.9
306.916
306.921
306.913
306.893
306.857
306.805
306.737
306.651
306.553
306.463
304.227
304.452
304.669
304.872
305.057
305.227
305.384
305.529
305.664
305.79
305.907
306.016
306.118
306.212
306.299
306.378
306.45
306.514
306.57
306.617
306.655
306.683
306.701
306.707
306.7
306.678
306.64
306.583
306.505
306.403
306.28
306.138
303.668
304.027
304.287
304.519
304.723
304.908
305.076
305.232
305.376
305.51
305.635
305.752
305.86
305.961
306.054
306.139
306.216
306.285
306.345
306.396
306.438
306.469
306.489
306.497
306.491
306.468
306.428
306.366
306.28
306.162
306.01
305.778
)
;

boundaryField
{
    left
    {
        type            zeroGradient;
    }
    right
    {
        type            zeroGradient;
    }
    interface
    {
        type            fixedValue;
        value           nonuniform List<scalar> 
32
(
303.343
303.827
304.1
304.345
304.559
304.75
304.924
305.085
305.233
305.371
305.5
305.62
305.732
305.836
305.932
306.02
306.1
306.172
306.234
306.287
306.331
306.364
306.385
306.394
306.388
306.366
306.324
306.261
306.171
306.045
305.886
305.569
)
;
    }
    bottom
    {
        type            fixedValue;
        value           uniform 310;
    }
    defaultFaces
    {
        type            empty;
    }
}


// ************************************************************************* //
