/*--------------------------------*- C++ -*----------------------------------*\
| =========                 |                                                 |
| \\      /  F ield         | OpenFOAM: The Open Source CFD Toolbox           |
|  \\    /   O peration     | Version:  2112                                  |
|   \\  /    A nd           | Website:  www.openfoam.com                      |
|    \\/     M anipulation  |                                                 |
\*---------------------------------------------------------------------------*/
FoamFile
{
    version     2.0;
    format      ascii;
    arch        "LSB;label=32;scalar=64";
    class       volVectorField;
    location    "1";
    object      UxB;
}
// * * * * * * * * * * * * * * * * * * * * * * * * * * * * * * * * * * * * * //

dimensions      [1 1 -3 0 0 -1 0];

internalField   nonuniform List<vector> 
1681
(
(0 0 0.113095983216)
(0 0 0.10559373248)
(0 0 0.075320698348)
(0 0 0.0773212180446)
(-0 0 0.0747911180243)
(0 0 0.0756236077776)
(-0 0 0.075316568468)
(0 0 0.075532039599)
(-0 0 0.0754759289999)
(0 0 0.0755201603517)
(-0 0 0.0755057850158)
(0 0 0.0755140984401)
(-0 0 0.0755103863597)
(0 0 0.0755120175301)
(-0 0 0.0755111499919)
(0 0 0.0755115037421)
(-0 0 0.0755113156434)
(0 0 0.0755113969239)
(-0 0 0.0755113570496)
(0 0 0.0755113756951)
(-0 0 0.0755113671058)
(0 0 0.0755113712795)
(-0 0 0.075511369384)
(0 0 0.075511370301)
(-0 0 0.0755113698778)
(0 0 0.0755113700785)
(-0 0 0.0755113699842)
(0 0 0.0755113700285)
(-0 0 0.0755113700076)
(0 0 0.0755113700174)
(-0 0 0.0755113700127)
(-0 0 0.0755113700147)
(-0 0 0.0755113700138)
(-0 0 0.0755113700146)
(-0 0 0.0755113700142)
(-0 0 0.0755113700141)
(-0 0 0.075511370014)
(-0 0 0.075511370014)
(-0 0 0.0755113700139)
(-0 0 0.0755113700139)
(-0 0 0.0755113700143)
(0 0 0.261383903722)
(0 0 0.258090326419)
(0 0 0.195428690539)
(0 0 0.198566140948)
(-0 0 0.19244465966)
(0 0 0.194183761143)
(-0 0 0.193468050398)
(0 0 0.193953540499)
(-0 0 0.193830981358)
(0 0 0.193933118064)
(-0 0 0.193901870051)
(0 0 0.193921022147)
(-0 0 0.19391277482)
(0 0 0.193916471394)
(-0 0 0.193914512432)
(0 0 0.193915304383)
(-0 0 0.193914877233)
(0 0 0.193915059062)
(-0 0 0.193914968702)
(0 0 0.193915010604)
(-0 0 0.193914991227)
(0 0 0.193915000643)
(-0 0 0.193914996378)
(0 0 0.193914998449)
(-0 0 0.193914997497)
(0 0 0.19391499795)
(-0 0 0.193914997738)
(0 0 0.193914997837)
(-0 0 0.19391499779)
(0 0 0.193914997812)
(-0 0 0.193914997802)
(0 0 0.193914997806)
(-0 0 0.193914997804)
(0 0 0.193914997806)
(-0 0 0.193914997805)
(0 0 0.193914997805)
(0 0 0.193914997805)
(-0 0 0.193914997805)
(-0 0 0.193914997805)
(0 0 0.193914997805)
(-0 0 0.193914997805)
(0 0 0.357968266859)
(0 0 0.367129584381)
(0 0 0.290113505781)
(0 0 0.293525474738)
(0 0 0.28492758802)
(0 0 0.287143391995)
(-0 0 0.286138419102)
(-0 0 0.286791057408)
(-0 0 0.286626002751)
(0 0 0.286766275554)
(-0 0 0.286724769542)
(0 0 0.286751171955)
(-0 0 0.286740104835)
(0 0 0.286745159924)
(-0 0 0.286742502832)
(0 0 0.286743576174)
(-0 0 0.286742993736)
(0 0 0.286743239578)
(-0 0 0.286743116362)
(0 0 0.286743173132)
(-0 0 0.286743146776)
(0 0 0.286743159565)
(-0 0 0.286743153775)
(0 0 0.286743156592)
(-0 0 0.2867431553)
(0 0 0.286743155916)
(-0 0 0.286743155628)
(0 0 0.286743155763)
(-0 0 0.286743155699)
(0 0 0.286743155729)
(-0 0 0.286743155715)
(0 0 0.286743155721)
(-0 0 0.286743155718)
(-0 0 0.28674315572)
(-0 0 0.286743155719)
(0 0 0.286743155719)
(0 0 0.286743155719)
(-0 0 0.286743155719)
(0 0 0.286743155719)
(0 0 0.286743155719)
(0 0 0.28674315572)
(0 0 0.420240366101)
(0 0 0.444346484306)
(0 0 0.364026239491)
(0 0 0.367747655323)
(0 0 0.357580303405)
(0 0 0.360039120472)
(-0 0 0.358822299911)
(-0 0 0.359574404638)
(-0 0 0.359379174176)
(-0 0 0.359544091955)
(-0 0 0.359495959627)
(0 0 0.359527257193)
(-0 0 0.359514404513)
(0 0 0.359520383834)
(-0 0 0.359517276814)
(0 0 0.35951853805)
(-0 0 0.359517853522)
(0 0 0.359518141355)
(-0 0 0.359517996312)
(0 0 0.359518062795)
(-0 0 0.359518031802)
(0 0 0.359518046803)
(-0 0 0.359518040006)
(0 0 0.359518043315)
(-0 0 0.359518041799)
(0 0 0.359518042523)
(-0 0 0.359518042184)
(0 0 0.359518042343)
(-0 0 0.359518042268)
(0 0 0.359518042303)
(-0 0 0.359518042286)
(0 0 0.359518042294)
(-0 0 0.35951804229)
(0 0 0.359518042293)
(0 0 0.359518042292)
(0 0 0.359518042291)
(-0 0 0.359518042291)
(-0 0 0.359518042291)
(0 0 0.359518042291)
(0 0 0.359518042291)
(0 0 0.359518042292)
(0 0 0.45957827717)
(0 0 0.498235702714)
(0 0 0.421225243116)
(0 0 0.425631434843)
(0 0 0.414619801095)
(0 0 0.417204950535)
(-0 0 0.415829958686)
(-0 0 0.416636541544)
(-0 0 0.416417041933)
(-0 0 0.416597128614)
(-0 0 0.416544263888)
(0 0 0.416578855551)
(-0 0 0.416564838051)
(0 0 0.416571468983)
(-0 0 0.416568071006)
(0 0 0.416569464159)
(-0 0 0.41656871205)
(0 0 0.416569028554)
(-0 0 0.416568868721)
(0 0 0.416568941716)
(-0 0 0.416568907551)
(0 0 0.416568924033)
(-0 0 0.416568916549)
(0 0 0.416568920189)
(-0 0 0.416568918521)
(0 0 0.416568919318)
(-0 0 0.416568918945)
(0 0 0.416568919121)
(-0 0 0.416568919037)
(0 0 0.416568919076)
(-0 0 0.416568919058)
(0 0 0.416568919066)
(-0 0 0.416568919062)
(0 0 0.416568919065)
(0 0 0.416568919064)
(0 0 0.416568919064)
(-0 0 0.416568919063)
(-0 0 0.416568919063)
(0 0 0.416568919063)
(0 0 0.416568919063)
(0 0 0.416568919064)
(0 0 0.483609229463)
(0 0 0.535110871621)
(0 0 0.465114573683)
(0 0 0.4706602894)
(0 0 0.459370490289)
(0 0 0.462035273637)
(-0 0 0.460541605261)
(-0 0 0.461372916721)
(-0 0 0.461131519301)
(-0 0 0.46132000257)
(-0 0 0.461263266234)
(0 0 0.4613000341)
(-0 0 0.461285213882)
(0 0 0.461292323003)
(-0 0 0.461288736053)
(0 0 0.461290228029)
(-0 0 0.461289430959)
(0 0 0.461289768193)
(-0 0 0.461289598103)
(0 0 0.461289675635)
(-0 0 0.461289639214)
(0 0 0.461289656716)
(-0 0 0.461289648742)
(0 0 0.461289652611)
(-0 0 0.461289650836)
(0 0 0.461289651684)
(-0 0 0.461289651288)
(0 0 0.461289651474)
(-0 0 0.461289651386)
(0 0 0.461289651427)
(-0 0 0.461289651408)
(0 0 0.461289651416)
(0 0 0.461289651413)
(0 0 0.461289651415)
(-0 0 0.461289651414)
(-0 0 0.461289651414)
(-0 0 0.461289651413)
(-0 0 0.461289651414)
(0 0 0.461289651414)
(-0 0 0.461289651413)
(0 0 0.461289651414)
(0 0 0.497510417879)
(0 0 0.559694653051)
(0 0 0.498496403816)
(0 0 0.505587453109)
(0 0 0.494451712691)
(0 0 0.497189205457)
(-0 0 0.495607663428)
(-0 0 0.496444228478)
(-0 0 0.496181518415)
(-0 0 0.496373478371)
(-0 0 0.49631314562)
(-0 0 0.496351284789)
(-0 0 0.496335864552)
(0 0 0.496343338655)
(-0 0 0.496339628404)
(0 0 0.496341199784)
(-0 0 0.496340372813)
(0 0 0.496340726107)
(-0 0 0.496340548728)
(0 0 0.49634062958)
(-0 0 0.496340591484)
(0 0 0.496340609712)
(-0 0 0.496340601371)
(0 0 0.496340605403)
(-0 0 0.49634060355)
(0 0 0.496340604434)
(-0 0 0.496340604021)
(0 0 0.496340604216)
(-0 0 0.496340604124)
(0 0 0.496340604167)
(-0 0 0.496340604146)
(0 0 0.496340604155)
(0 0 0.496340604151)
(0 0 0.496340604154)
(0 0 0.496340604153)
(-0 0 0.496340604153)
(-0 0 0.496340604152)
(-0 0 0.496340604153)
(-0 0 0.496340604153)
(0 0 0.496340604152)
(0 0 0.496340604153)
(0 0 0.504792969757)
(0 0 0.575495186843)
(0 0 0.523651238312)
(0 0 0.532589119311)
(0 0 0.521926940587)
(0 0 0.524750303203)
(-0 0 0.523105927469)
(-0 0 0.523935205514)
(-0 0 0.523651028258)
(-0 0 0.523842851271)
(-0 0 0.523778896795)
(-0 0 0.523817810052)
(-0 0 0.523801897625)
(0 0 0.52380965967)
(0 0 0.523805868757)
(0 0 0.523807508023)
(-0 0 0.523806661393)
(0 0 0.523807028012)
(-0 0 0.523806845341)
(0 0 0.523806928756)
(-0 0 0.523806889363)
(0 0 0.523806908126)
(-0 0 0.523806899495)
(0 0 0.52380690365)
(-0 0 0.523806901734)
(0 0 0.523806902647)
(-0 0 0.523806902221)
(0 0 0.523806902421)
(-0 0 0.523806902326)
(0 0 0.523806902371)
(-0 0 0.52380690235)
(0 0 0.523806902359)
(0 0 0.523806902355)
(0 0 0.523806902357)
(0 0 0.523806902356)
(-0 0 0.523806902356)
(-0 0 0.523806902356)
(-0 0 0.523806902356)
(0 0 0.523806902356)
(-0 0 0.523806902356)
(0 0 0.523806902357)
(0 0 0.507830239513)
(0 0 0.585098432134)
(0 0 0.542416369997)
(0 0 0.553385431475)
(0 0 0.543421215633)
(0 0 0.546351311233)
(-0 0 0.544664814149)
(-0 0 0.545478983073)
(-0 0 0.545173036729)
(-0 0 0.545362071334)
(-0 0 0.545294345808)
(-0 0 0.545333581422)
(-0 0 0.545317230089)
(0 0 0.545325224887)
(0 0 0.545321381264)
(0 0 0.545323081301)
(0 0 0.54532222213)
(0 0 0.545322600445)
(-0 0 0.545322413867)
(0 0 0.545322499368)
(-0 0 0.545322458928)
(0 0 0.545322478103)
(-0 0 0.545322469233)
(0 0 0.54532247348)
(-0 0 0.545322471514)
(0 0 0.545322472448)
(-0 0 0.545322472012)
(0 0 0.545322472218)
(-0 0 0.54532247212)
(0 0 0.545322472166)
(-0 0 0.545322472144)
(0 0 0.545322472155)
(0 0 0.54532247215)
(0 0 0.545322472152)
(0 0 0.545322472151)
(-0 0 0.545322472151)
(-0 0 0.545322472151)
(-0 0 0.545322472151)
(0 0 0.545322472151)
(-0 0 0.545322472151)
(0 0 0.545322472152)
(0 0 0.508222044641)
(0 0 0.590400233177)
(0 0 0.556258689277)
(0 0 0.569334973523)
(0 0 0.560213582475)
(0 0 0.563271565713)
(-0 0 0.561560023007)
(-0 0 0.562354508757)
(-0 0 0.562026661119)
(-0 0 0.562210998654)
(-0 0 0.562139335498)
(-0 0 0.56217855012)
(-0 0 0.562161784182)
(0 0 0.562169970045)
(0 0 0.56216609222)
(0 0 0.562167848192)
(0 0 0.562166981515)
(0 0 0.5621673705)
(-0 0 0.562167181008)
(0 0 0.562167268282)
(-0 0 0.562167226973)
(0 0 0.562167246474)
(-0 0 0.562167237398)
(0 0 0.562167241719)
(-0 0 0.56216723971)
(0 0 0.562167240662)
(-0 0 0.562167240217)
(0 0 0.562167240427)
(-0 0 0.562167240328)
(0 0 0.562167240374)
(-0 0 0.562167240352)
(0 0 0.562167240363)
(0 0 0.562167240358)
(0 0 0.562167240361)
(0 0 0.562167240359)
(-0 0 0.562167240359)
(-0 0 0.562167240359)
(0 0 0.56216724036)
(0 0 0.56216724036)
(-0 0 0.562167240359)
(0 0 0.56216724036)
(0 0 0.507042508661)
(0 0 0.592783715444)
(0 0 0.566340322491)
(0 0 0.581509247808)
(0 0 0.573309942329)
(0 0 0.576513097826)
(-0 0 0.57479031287)
(-0 0 0.575562804455)
(-0 0 0.575213250186)
(-0 0 0.575391580433)
(-0 0 0.575315858953)
(-0 0 0.5753547952)
(-0 0 0.575337626006)
(0 0 0.575345969897)
(0 0 0.575342070228)
(0 0 0.575343878338)
(0 0 0.575343007754)
(0 0 0.575343406676)
(-0 0 0.575343215004)
(0 0 0.575343303832)
(-0 0 0.575343261785)
(0 0 0.575343281552)
(-0 0 0.575343272296)
(0 0 0.575343276676)
(-0 0 0.57534327463)
(0 0 0.575343275597)
(-0 0 0.575343275144)
(0 0 0.575343275358)
(-0 0 0.575343275257)
(0 0 0.575343275304)
(-0 0 0.575343275282)
(0 0 0.575343275293)
(0 0 0.575343275288)
(0 0 0.57534327529)
(0 0 0.575343275288)
(-0 0 0.575343275289)
(-0 0 0.575343275289)
(0 0 0.575343275289)
(0 0 0.575343275289)
(-0 0 0.575343275289)
(0 0 0.575343275289)
(0 0 0.505008100288)
(0 0 0.593252426935)
(0 0 0.573575728)
(0 0 0.590751731338)
(0 0 0.583500460583)
(0 0 0.586860117738)
(-0 0 0.585136864811)
(-0 0 0.585886648212)
(-0 0 0.585515974439)
(-0 0 0.585687486396)
(-0 0 0.585607667455)
(-0 0 0.585646139873)
(-0 0 0.585628575757)
(0 0 0.585637050486)
(0 0 0.585633137271)
(0 0 0.585634994035)
(0 0 0.58563412211)
(0 0 0.585634530343)
(-0 0 0.585634337044)
(0 0 0.58563442726)
(-0 0 0.58563438458)
(0 0 0.585634404567)
(-0 0 0.585634395152)
(0 0 0.58563439958)
(-0 0 0.585634397501)
(0 0 0.58563439848)
(-0 0 0.585634398021)
(0 0 0.585634398237)
(-0 0 0.585634398136)
(0 0 0.585634398183)
(-0 0 0.585634398161)
(0 0 0.585634398172)
(0 0 0.585634398167)
(0 0 0.585634398169)
(0 0 0.585634398167)
(-0 0 0.585634398168)
(-0 0 0.585634398168)
(-0 0 0.585634398168)
(0 0 0.585634398168)
(-0 0 0.585634398168)
(0 0 0.585634398168)
(0 0 0.502592179674)
(0 0 0.592529973149)
(0 0 0.578679941744)
(0 0 0.597724723833)
(0 0 0.591404746557)
(0 0 0.594925497711)
(-0 0 0.593209740002)
(-0 0 0.593937243862)
(-0 0 0.593546443782)
(-0 0 0.593710753354)
(-0 0 0.593626897419)
(-0 0 0.593664783071)
(-0 0 0.593646835354)
(0 0 0.593655417954)
(0 0 0.593651496768)
(0 0 0.593653398601)
(0 0 0.593652527124)
(0 0 0.593652944042)
(-0 0 0.593652749544)
(0 0 0.593652841005)
(-0 0 0.59365279778)
(0 0 0.593652817952)
(-0 0 0.593652808395)
(0 0 0.593652812862)
(-0 0 0.593652810754)
(0 0 0.593652811744)
(-0 0 0.593652811279)
(0 0 0.593652811498)
(-0 0 0.593652811395)
(0 0 0.593652811443)
(0 0 0.593652811421)
(0 0 0.593652811432)
(0 0 0.593652811427)
(-0 0 0.593652811429)
(-0 0 0.593652811427)
(-0 0 0.593652811428)
(-0 0 0.593652811428)
(-0 0 0.593652811428)
(0 0 0.593652811428)
(-0 0 0.593652811428)
(0 0 0.593652811428)
(0 0 0.500103458279)
(0 0 0.591134448127)
(0 0 0.582208505612)
(0 0 0.602946451427)
(0 0 0.59750734647)
(0 0 0.601187060152)
(-0 0 0.599484182335)
(-0 0 0.6001906648)
(-0 0 0.599781122222)
(-0 0 0.599938215538)
(-0 0 0.599850489221)
(-0 0 0.599887720645)
(-0 0 0.599869407046)
(0 0 0.599878077817)
(0 0 0.599874152369)
(0 0 0.599876095371)
(0 0 0.599875225526)
(0 0 0.59987565044)
(-0 0 0.599875455072)
(0 0 0.599875547648)
(-0 0 0.599875503954)
(0 0 0.599875524282)
(-0 0 0.599875514599)
(0 0 0.599875519099)
(-0 0 0.599875516965)
(0 0 0.599875517963)
(-0 0 0.599875517494)
(0 0 0.599875517715)
(-0 0 0.599875517611)
(0 0 0.59987551766)
(0 0 0.599875517637)
(0 0 0.599875517648)
(0 0 0.599875517644)
(0 0 0.599875517646)
(-0 0 0.599875517644)
(-0 0 0.599875517644)
(-0 0 0.599875517644)
(-0 0 0.599875517645)
(0 0 0.599875517645)
(0 0 0.599875517645)
(0 0 0.599875517645)
(0 0 0.497739842023)
(0 0 0.589433815024)
(0 0 0.584589977465)
(0 0 0.606820372817)
(0 0 0.602185552604)
(0 0 0.606015849304)
(-0 0 0.604328916049)
(-0 0 0.605016245688)
(-0 0 0.604589703606)
(-0 0 0.604739888944)
(-0 0 0.604648563842)
(-0 0 0.604685123063)
(-0 0 0.604666469381)
(0 0 0.604675211285)
(0 0 0.604671283985)
(0 0 0.60467326384)
(0 0 0.604672396321)
(0 0 0.604672828451)
(-0 0 0.604672632466)
(0 0 0.604672726025)
(-0 0 0.604672681933)
(0 0 0.604672702392)
(-0 0 0.604672692599)
(0 0 0.604672697126)
(-0 0 0.604672694969)
(0 0 0.604672695975)
(-0 0 0.604672695501)
(0 0 0.604672695725)
(-0 0 0.60467269562)
(0 0 0.60467269567)
(0 0 0.604672695646)
(0 0 0.604672695657)
(0 0 0.604672695653)
(0 0 0.604672695655)
(-0 0 0.604672695653)
(-0 0 0.604672695653)
(0 0 0.604672695653)
(-0 0 0.604672695654)
(0 0 0.604672695654)
(0 0 0.604672695654)
(0 0 0.604672695654)
(0 0 0.4956253866)
(0 0 0.587686898351)
(0 0 0.586152013709)
(0 0 0.609658219628)
(0 0 0.605731099079)
(0 0 0.609698076361)
(-0 0 0.608028114989)
(-0 0 0.608698614296)
(-0 0 0.608257134777)
(-0 0 0.608400998805)
(-0 0 0.608306445052)
(-0 0 0.608342357872)
(-0 0 0.6083233985)
(0 0 0.608332196739)
(0 0 0.608328269074)
(0 0 0.60833028102)
(0 0 0.608329416121)
(0 0 0.60832985458)
(-0 0 0.608329658173)
(0 0 0.60832975258)
(-0 0 0.608329708156)
(0 0 0.608329728723)
(-0 0 0.608329718836)
(0 0 0.608329723384)
(-0 0 0.608329721208)
(0 0 0.60832972222)
(-0 0 0.608329721743)
(0 0 0.608329721968)
(-0 0 0.608329721863)
(0 0 0.608329721912)
(0 0 0.608329721889)
(0 0 0.6083297219)
(-0 0 0.608329721895)
(0 0 0.608329721897)
(-0 0 0.608329721896)
(0 0 0.608329721896)
(0 0 0.608329721896)
(0 0 0.608329721897)
(0 0 0.608329721897)
(0 0 0.608329721896)
(0 0 0.608329721897)
(0 0 0.493835629487)
(0 0 0.586073531266)
(0 0 0.587141981019)
(0 0 0.611697971595)
(0 0 0.608366969669)
(0 0 0.61245204456)
(-0 0 0.610798345372)
(-0 0 0.611454675779)
(-0 0 0.611000595093)
(-0 0 0.611138960859)
(-0 0 0.61104163694)
(-0 0 0.611076967106)
(-0 0 0.611057744725)
(0 0 0.611066586396)
(0 0 0.611062659185)
(0 0 0.611064698039)
(0 0 0.611063835724)
(0 0 0.611064279525)
(-0 0 0.611064082837)
(0 0 0.611064177951)
(-0 0 0.611064133259)
(0 0 0.611064153912)
(-0 0 0.611064143947)
(0 0 0.611064148513)
(-0 0 0.611064146321)
(0 0 0.611064147338)
(-0 0 0.611064146857)
(0 0 0.611064147084)
(-0 0 0.611064146978)
(0 0 0.611064147028)
(0 0 0.611064147004)
(0 0 0.611064147016)
(-0 0 0.611064147011)
(0 0 0.611064147013)
(-0 0 0.611064147011)
(0 0 0.611064147012)
(0 0 0.611064147012)
(0 0 0.611064147012)
(-0 0 0.611064147012)
(0 0 0.611064147012)
(0 0 0.611064147012)
(0 0 0.492414885073)
(0 0 0.584716517862)
(0 0 0.587742956069)
(0 0 0.613117704711)
(0 0 0.610260267651)
(0 0 0.614441058788)
(-0 0 0.612801486171)
(-0 0 0.613446560409)
(-0 0 0.612982441494)
(-0 0 0.613116326724)
(-0 0 0.613016766569)
(-0 0 0.613051609614)
(-0 0 0.613032174322)
(0 0 0.613041048094)
(0 0 0.613037121676)
(0 0 0.613039181875)
(0 0 0.613038321845)
(0 0 0.613038769906)
(-0 0 0.613038573041)
(0 0 0.613038668714)
(-0 0 0.613038623815)
(0 0 0.613038644533)
(-0 0 0.613038634508)
(0 0 0.613038639086)
(-0 0 0.613038636882)
(0 0 0.613038637903)
(-0 0 0.61303863742)
(0 0 0.613038637647)
(-0 0 0.613038637541)
(0 0 0.613038637592)
(0 0 0.613038637568)
(0 0 0.613038637579)
(-0 0 0.613038637574)
(0 0 0.613038637576)
(-0 0 0.613038637575)
(-0 0 0.613038637575)
(0 0 0.613038637575)
(0 0 0.613038637576)
(-0 0 0.613038637576)
(0 0 0.613038637575)
(0 0 0.613038637576)
(0 0 0.491387938668)
(0 0 0.58369737674)
(0 0 0.588085842177)
(0 0 0.614046038546)
(0 0 0.611531875884)
(0 0 0.615783084101)
(-0 0 0.614154392887)
(-0 0 0.614791305173)
(-0 0 0.614319888511)
(-0 0 0.614450463473)
(-0 0 0.61434926157)
(-0 0 0.61438373827)
(-0 0 0.614364146295)
(0 0 0.614373042084)
(0 0 0.614369116458)
(0 0 0.614371192134)
(0 0 0.614370333883)
(0 0 0.614370785044)
(0 0 0.614370588075)
(0 0 0.614370684152)
(-0 0 0.614370639105)
(0 0 0.614370659871)
(-0 0 0.614370649802)
(0 0 0.614370654389)
(-0 0 0.614370652176)
(0 0 0.6143706532)
(-0 0 0.614370652715)
(0 0 0.614370652943)
(-0 0 0.614370652837)
(0 0 0.614370652887)
(-0 0 0.614370652863)
(0 0 0.614370652875)
(0 0 0.61437065287)
(-0 0 0.614370652872)
(0 0 0.61437065287)
(0 0 0.614370652871)
(0 0 0.614370652871)
(0 0 0.614370652871)
(-0 0 0.614370652871)
(0 0 0.614370652871)
(-0 0 0.614370652871)
(0 0 0.490767781496)
(0 0 0.583067292787)
(0 0 0.588258191856)
(0 0 0.614569734123)
(0 0 0.612263454402)
(0 0 0.616557724009)
(-0 0 0.61493587745)
(-0 0 0.615567845021)
(-0 0 0.615091998549)
(-0 0 0.615220543209)
(-0 0 0.61511833828)
(-0 0 0.615152587745)
(-0 0 0.615132899882)
(0 0 0.615141808513)
(0 0 0.615137883448)
(0 0 0.615139968504)
(0 0 0.61513911138)
(0 0 0.615139564424)
(0 0 0.615139367401)
(0 0 0.615139463723)
(-0 0 0.615139418589)
(0 0 0.615139439382)
(-0 0 0.615139429287)
(0 0 0.615139433879)
(-0 0 0.615139431661)
(0 0 0.615139432686)
(-0 0 0.6151394322)
(0 0 0.615139432429)
(-0 0 0.615139432322)
(0 0 0.615139432373)
(0 0 0.615139432349)
(0 0 0.61513943236)
(0 0 0.615139432355)
(-0 0 0.615139432357)
(0 0 0.615139432356)
(0 0 0.615139432356)
(0 0 0.615139432356)
(0 0 0.615139432356)
(-0 0 0.615139432357)
(0 0 0.615139432356)
(0 0 0.615139432356)
(-0 0 0.49056047171)
(-0 0 0.582854289455)
(0 0 0.588310196128)
(0 0 0.614738848706)
(-0 0 0.612502173411)
(0 0 0.61681093053)
(0 0 0.615191417955)
(-0 0 0.615821729474)
(-0 0 0.615344397862)
(0 0 0.615472258369)
(0 0 0.61536971607)
(-0 0 0.615403888543)
(-0 0 0.615384168405)
(0 0 0.615393081252)
(-0 0 0.615389156388)
(-0 0 0.615391244587)
(0 0 0.615390387848)
(0 0 0.615390841524)
(-0 0 0.615390644484)
(-0 0 0.615390740889)
(0 0 0.615390695725)
(0 0 0.615390716527)
(0 0 0.615390706423)
(0 0 0.615390711017)
(0 0 0.615390708797)
(0 0 0.615390709823)
(0 0 0.615390709336)
(0 0 0.615390709566)
(0 0 0.615390709459)
(0 0 0.61539070951)
(0 0 0.615390709486)
(0 0 0.615390709497)
(0 0 0.615390709492)
(-0 0 0.615390709494)
(0 0 0.615390709493)
(0 0 0.615390709493)
(0 0 0.615390709493)
(-0 0 0.615390709493)
(0 0 0.615390709493)
(0 0 0.615390709493)
(0 0 0.615390709493)
(-0 0 0.490767781611)
(-0 0 0.583067293092)
(-0 0 0.588258191937)
(-0 0 0.614569733939)
(-0 0 0.612263454391)
(-0 0 0.616557724094)
(0 0 0.614935877437)
(0 0 0.615567844986)
(0 0 0.615091998561)
(0 0 0.615220543222)
(0 0 0.615118338271)
(0 0 0.615152587741)
(0 0 0.615132899887)
(-0 0 0.615141808514)
(-0 0 0.615137883446)
(-0 0 0.615139968505)
(-0 0 0.615139111381)
(-0 0 0.615139564424)
(-0 0 0.615139367401)
(-0 0 0.615139463723)
(0 0 0.615139418589)
(-0 0 0.615139439382)
(0 0 0.615139429287)
(-0 0 0.615139433879)
(0 0 0.61513943166)
(-0 0 0.615139432686)
(0 0 0.6151394322)
(-0 0 0.615139432429)
(0 0 0.615139432322)
(0 0 0.615139432373)
(0 0 0.615139432349)
(0 0 0.61513943236)
(0 0 0.615139432355)
(0 0 0.615139432357)
(0 0 0.615139432356)
(0 0 0.615139432356)
(0 0 0.615139432356)
(-0 0 0.615139432356)
(-0 0 0.615139432357)
(0 0 0.615139432356)
(0 0 0.615139432357)
(-0 0 0.491387938906)
(-0 0 0.583697377342)
(-0 0 0.588085842325)
(-0 0 0.614046038189)
(-0 0 0.611531875865)
(-0 0 0.615783084265)
(0 0 0.614154392862)
(0 0 0.614791305105)
(0 0 0.614319888535)
(0 0 0.614450463497)
(0 0 0.614349261554)
(0 0 0.614383738263)
(0 0 0.614364146304)
(-0 0 0.614373042086)
(-0 0 0.614369116453)
(-0 0 0.614371192135)
(-0 0 0.614370333885)
(-0 0 0.614370785044)
(-0 0 0.614370588074)
(-0 0 0.614370684153)
(0 0 0.614370639106)
(-0 0 0.614370659871)
(0 0 0.614370649802)
(-0 0 0.614370654389)
(0 0 0.614370652176)
(-0 0 0.614370653199)
(0 0 0.614370652715)
(-0 0 0.614370652943)
(0 0 0.614370652837)
(-0 0 0.614370652887)
(0 0 0.614370652863)
(0 0 0.614370652875)
(0 0 0.614370652869)
(0 0 0.614370652872)
(0 0 0.61437065287)
(-0 0 0.614370652871)
(0 0 0.614370652871)
(-0 0 0.614370652871)
(-0 0 0.614370652871)
(0 0 0.614370652871)
(0 0 0.614370652871)
(-0 0 0.492414885448)
(-0 0 0.584716518745)
(-0 0 0.58774295626)
(-0 0 0.613117704199)
(-0 0 0.610260267633)
(-0 0 0.614441059021)
(0 0 0.612801486132)
(0 0 0.613446560315)
(0 0 0.612982441529)
(0 0 0.613116326757)
(0 0 0.613016766546)
(0 0 0.613051609604)
(0 0 0.613032174334)
(-0 0 0.613041048095)
(-0 0 0.61303712167)
(-0 0 0.613039181876)
(-0 0 0.613038321848)
(-0 0 0.613038769905)
(0 0 0.61303857304)
(-0 0 0.613038668715)
(0 0 0.613038623815)
(-0 0 0.613038644533)
(0 0 0.613038634508)
(-0 0 0.613038639086)
(0 0 0.613038636882)
(-0 0 0.613038637903)
(0 0 0.61303863742)
(-0 0 0.613038637648)
(0 0 0.613038637541)
(-0 0 0.613038637592)
(0 0 0.613038637568)
(0 0 0.613038637579)
(0 0 0.613038637574)
(0 0 0.613038637576)
(0 0 0.613038637575)
(0 0 0.613038637575)
(0 0 0.613038637575)
(0 0 0.613038637575)
(-0 0 0.613038637576)
(-0 0 0.613038637575)
(0 0 0.613038637575)
(-0 0 0.493835630017)
(-0 0 0.586073532408)
(-0 0 0.58714198122)
(-0 0 0.611697970956)
(-0 0 0.608366969661)
(-0 0 0.612452044845)
(0 0 0.610798345318)
(0 0 0.611454675665)
(0 0 0.611000595138)
(0 0 0.611138960898)
(0 0 0.611041636911)
(0 0 0.611076967095)
(0 0 0.611057744741)
(-0 0 0.611066586398)
(-0 0 0.611062659178)
(-0 0 0.611064698039)
(-0 0 0.611063835727)
(-0 0 0.611064279524)
(0 0 0.611064082836)
(-0 0 0.611064177952)
(0 0 0.61106413326)
(-0 0 0.611064153912)
(0 0 0.611064143947)
(-0 0 0.611064148512)
(0 0 0.611064146321)
(-0 0 0.611064147338)
(0 0 0.611064146857)
(-0 0 0.611064147084)
(0 0 0.611064146978)
(-0 0 0.611064147028)
(-0 0 0.611064147005)
(0 0 0.611064147016)
(0 0 0.61106414701)
(0 0 0.611064147013)
(0 0 0.611064147011)
(0 0 0.611064147012)
(0 0 0.611064147012)
(0 0 0.611064147012)
(-0 0 0.611064147012)
(-0 0 0.611064147012)
(0 0 0.611064147012)
(-0 0 0.495625387305)
(-0 0 0.587686899719)
(-0 0 0.586152013881)
(-0 0 0.609658218897)
(-0 0 0.605731099094)
(-0 0 0.609698076679)
(0 0 0.60802811492)
(0 0 0.608698614173)
(0 0 0.60825713483)
(0 0 0.608400998845)
(0 0 0.608306445019)
(0 0 0.608342357861)
(0 0 0.608323398517)
(-0 0 0.608332196741)
(-0 0 0.608328269066)
(-0 0 0.608330281021)
(-0 0 0.608329416124)
(-0 0 0.60832985458)
(0 0 0.608329658172)
(-0 0 0.608329752581)
(0 0 0.608329708157)
(-0 0 0.608329728723)
(0 0 0.608329718836)
(-0 0 0.608329723384)
(0 0 0.608329721208)
(-0 0 0.60832972222)
(0 0 0.608329721742)
(-0 0 0.608329721968)
(0 0 0.608329721863)
(-0 0 0.608329721912)
(-0 0 0.608329721889)
(-0 0 0.6083297219)
(0 0 0.608329721895)
(0 0 0.608329721897)
(0 0 0.608329721896)
(0 0 0.608329721896)
(0 0 0.608329721896)
(0 0 0.608329721896)
(-0 0 0.608329721896)
(-0 0 0.608329721897)
(0 0 0.608329721897)
(-0 0 0.497739842919)
(-0 0 0.589433816579)
(-0 0 0.584589977568)
(-0 0 0.606820372034)
(-0 0 0.602185552652)
(-0 0 0.606015849633)
(0 0 0.604328915963)
(0 0 0.605016245565)
(0 0 0.604589703665)
(0 0 0.604739888982)
(0 0 0.604648563807)
(0 0 0.604685123054)
(0 0 0.604666469398)
(-0 0 0.604675211286)
(-0 0 0.604671283978)
(-0 0 0.604673263841)
(-0 0 0.604672396324)
(-0 0 0.60467282845)
(0 0 0.604672632466)
(-0 0 0.604672726027)
(0 0 0.604672681935)
(-0 0 0.604672702392)
(0 0 0.604672692599)
(-0 0 0.604672697126)
(0 0 0.604672694969)
(-0 0 0.604672695975)
(0 0 0.604672695501)
(-0 0 0.604672695725)
(0 0 0.60467269562)
(-0 0 0.604672695669)
(-0 0 0.604672695646)
(-0 0 0.604672695658)
(0 0 0.604672695652)
(0 0 0.604672695654)
(0 0 0.604672695653)
(-0 0 0.604672695654)
(-0 0 0.604672695653)
(-0 0 0.604672695653)
(-0 0 0.604672695654)
(-0 0 0.604672695654)
(0 0 0.604672695654)
(-0 0 0.500103459377)
(-0 0 0.591134449822)
(-0 0 0.582208505606)
(-0 0 0.602946450635)
(-0 0 0.597507346562)
(-0 0 0.601187060469)
(0 0 0.599484182233)
(0 0 0.600190664688)
(0 0 0.599781122284)
(0 0 0.599938215568)
(0 0 0.599850489187)
(0 0 0.599887720639)
(0 0 0.599869407061)
(-0 0 0.599878077817)
(-0 0 0.599874152363)
(-0 0 0.599876095373)
(-0 0 0.599875225528)
(-0 0 0.59987565044)
(0 0 0.599875455072)
(-0 0 0.599875547649)
(0 0 0.599875503955)
(-0 0 0.599875524282)
(0 0 0.599875514599)
(-0 0 0.599875519099)
(0 0 0.599875516965)
(-0 0 0.599875517964)
(0 0 0.599875517493)
(-0 0 0.599875517715)
(0 0 0.599875517611)
(-0 0 0.59987551766)
(0 0 0.599875517637)
(-0 0 0.599875517649)
(0 0 0.599875517643)
(0 0 0.599875517645)
(0 0 0.599875517644)
(0 0 0.599875517645)
(-0 0 0.599875517644)
(-0 0 0.599875517644)
(-0 0 0.599875517645)
(-0 0 0.599875517645)
(-0 0 0.599875517645)
(-0 0 0.502592180975)
(-0 0 0.592529974932)
(-0 0 0.578679941597)
(-0 0 0.597724723075)
(-0 0 0.591404746699)
(-0 0 0.594925497993)
(0 0 0.593209739887)
(0 0 0.593937243771)
(0 0 0.593546443845)
(0 0 0.593710753374)
(0 0 0.593626897388)
(0 0 0.593664783069)
(0 0 0.593646835367)
(-0 0 0.593655417953)
(-0 0 0.593651496763)
(-0 0 0.593653398603)
(-0 0 0.593652527126)
(-0 0 0.593652944041)
(0 0 0.593652749544)
(-0 0 0.593652841006)
(0 0 0.593652797781)
(-0 0 0.593652817953)
(0 0 0.593652808395)
(-0 0 0.593652812862)
(0 0 0.593652810754)
(-0 0 0.593652811744)
(0 0 0.593652811278)
(-0 0 0.593652811498)
(0 0 0.593652811395)
(-0 0 0.593652811443)
(0 0 0.593652811421)
(-0 0 0.593652811432)
(0 0 0.593652811427)
(0 0 0.593652811429)
(-0 0 0.593652811427)
(-0 0 0.593652811428)
(-0 0 0.593652811428)
(-0 0 0.593652811428)
(0 0 0.593652811428)
(-0 0 0.593652811428)
(-0 0 0.593652811428)
(-0 0 0.50500810178)
(-0 0 0.593252428746)
(-0 0 0.57357572769)
(-0 0 0.590751730657)
(-0 0 0.583500460777)
(-0 0 0.586860117965)
(0 0 0.585136864686)
(0 0 0.585886648149)
(0 0 0.585515974498)
(0 0 0.585687486404)
(0 0 0.585607667429)
(0 0 0.585646139876)
(0 0 0.585628575767)
(-0 0 0.585637050483)
(-0 0 0.585633137269)
(-0 0 0.585634994037)
(-0 0 0.585634122111)
(-0 0 0.585634530342)
(0 0 0.585634337045)
(-0 0 0.585634427261)
(0 0 0.585634384581)
(-0 0 0.585634404567)
(0 0 0.585634395152)
(-0 0 0.58563439958)
(0 0 0.585634397501)
(-0 0 0.58563439848)
(0 0 0.58563439802)
(-0 0 0.585634398237)
(0 0 0.585634398136)
(-0 0 0.585634398183)
(0 0 0.585634398161)
(-0 0 0.585634398172)
(0 0 0.585634398167)
(0 0 0.585634398168)
(-0 0 0.585634398167)
(-0 0 0.585634398168)
(-0 0 0.585634398168)
(-0 0 0.585634398168)
(0 0 0.585634398168)
(-0 0 0.585634398168)
(-0 0 0.585634398168)
(-0 0 0.507042510317)
(-0 0 0.592783717223)
(-0 0 0.566340322008)
(-0 0 0.58150924724)
(-0 0 0.57330994257)
(-0 0 0.576513097983)
(0 0 0.574790312742)
(0 0 0.575562804426)
(0 0 0.575213250237)
(0 0 0.575391580427)
(0 0 0.575315858934)
(0 0 0.575354795208)
(0 0 0.575337626011)
(-0 0 0.575345969893)
(-0 0 0.575342070227)
(-0 0 0.57534387834)
(-0 0 0.575343007755)
(-0 0 0.575343406676)
(0 0 0.575343215004)
(-0 0 0.575343303833)
(0 0 0.575343261786)
(-0 0 0.575343281552)
(0 0 0.575343272297)
(-0 0 0.575343276676)
(0 0 0.57534327463)
(-0 0 0.575343275597)
(0 0 0.575343275144)
(-0 0 0.575343275357)
(0 0 0.575343275257)
(-0 0 0.575343275304)
(0 0 0.575343275282)
(-0 0 0.575343275293)
(0 0 0.575343275288)
(0 0 0.575343275289)
(-0 0 0.575343275288)
(-0 0 0.575343275289)
(-0 0 0.575343275289)
(-0 0 0.575343275289)
(0 0 0.575343275289)
(-0 0 0.575343275289)
(-0 0 0.575343275289)
(-0 0 0.508222046419)
(-0 0 0.590400234862)
(-0 0 0.556258688628)
(-0 0 0.569334973099)
(-0 0 0.560213582755)
(-0 0 0.563271565789)
(0 0 0.561560022883)
(0 0 0.562354508764)
(0 0 0.562026661159)
(0 0 0.562210998634)
(0 0 0.562139335486)
(0 0 0.562178550131)
(0 0 0.562161784183)
(-0 0 0.56216997004)
(-0 0 0.562166092221)
(-0 0 0.562167848194)
(-0 0 0.562166981515)
(-0 0 0.5621673705)
(0 0 0.562167181009)
(-0 0 0.562167268283)
(0 0 0.562167226974)
(-0 0 0.562167246474)
(0 0 0.562167237399)
(-0 0 0.562167241719)
(0 0 0.56216723971)
(-0 0 0.562167240662)
(0 0 0.562167240217)
(-0 0 0.562167240427)
(0 0 0.562167240328)
(-0 0 0.562167240374)
(0 0 0.562167240352)
(-0 0 0.562167240363)
(0 0 0.562167240358)
(-0 0 0.56216724036)
(-0 0 0.562167240358)
(-0 0 0.562167240359)
(-0 0 0.562167240359)
(-0 0 0.562167240359)
(0 0 0.56216724036)
(-0 0 0.56216724036)
(-0 0 0.56216724036)
(-0 0 0.507830241361)
(-0 0 0.585098433667)
(-0 0 0.542416369204)
(-0 0 0.553385431215)
(-0 0 0.543421215937)
(-0 0 0.546351311223)
(0 0 0.544664814036)
(0 0 0.545478983114)
(0 0 0.545173036756)
(0 0 0.545362071303)
(0 0 0.545294345805)
(0 0 0.545333581436)
(0 0 0.545317230086)
(-0 0 0.545325224883)
(-0 0 0.545321381268)
(-0 0 0.545323081303)
(-0 0 0.545322222129)
(-0 0 0.545322600445)
(0 0 0.545322413868)
(-0 0 0.545322499369)
(0 0 0.545322458929)
(-0 0 0.545322478103)
(0 0 0.545322469233)
(-0 0 0.54532247348)
(0 0 0.545322471514)
(-0 0 0.545322472448)
(0 0 0.545322472012)
(-0 0 0.545322472217)
(0 0 0.54532247212)
(-0 0 0.545322472166)
(0 0 0.545322472144)
(-0 0 0.545322472155)
(-0 0 0.54532247215)
(-0 0 0.545322472152)
(-0 0 0.54532247215)
(-0 0 0.545322472151)
(-0 0 0.545322472151)
(-0 0 0.545322472151)
(0 0 0.545322472151)
(0 0 0.545322472151)
(-0 0 0.545322472152)
(-0 0 0.504792971609)
(-0 0 0.575495188172)
(-0 0 0.523651237411)
(-0 0 0.532589119224)
(-0 0 0.521926940895)
(-0 0 0.524750303111)