/*--------------------------------*- C++ -*----------------------------------*\
| =========                 |                                                 |
| \\      /  F ield         | OpenFOAM: The Open Source CFD Toolbox           |
|  \\    /   O peration     | Version:  2112                                  |
|   \\  /    A nd           | Website:  www.openfoam.com                      |
|    \\/     M anipulation  |                                                 |
\*---------------------------------------------------------------------------*/
FoamFile
{
    version     2.0;
    format      ascii;
    arch        "LSB;label=32;scalar=64";
    class       surfaceScalarField;
    location    "1";
    object      phi;
}
// * * * * * * * * * * * * * * * * * * * * * * * * * * * * * * * * * * * * * //

dimensions      [1 0 -1 0 0 0 0];

oriented        oriented;

internalField   nonuniform List<scalar> 
23692
(
2.32736e-06
-3.68061e-10
2.32795e-06
-5.86651e-10
2.32859e-06
-6.40295e-10
2.3291e-06
-5.08805e-10
2.32932e-06
-2.10013e-10
2.32912e-06
2.0697e-10
2.32846e-06
6.69611e-10
2.32737e-06
1.10077e-09
2.32595e-06
1.44032e-09
2.3243e-06
1.65723e-09
2.32257e-06
1.75055e-09
2.32085e-06
1.74115e-09
2.31921e-06
1.65967e-09
2.3177e-06
1.53708e-09
2.31633e-06
1.39793e-09
2.3151e-06
1.2581e-09
2.31401e-06
1.12583e-09
2.31304e-06
1.00364e-09
2.31219e-06
8.90658e-10
2.31145e-06
7.84402e-10
2.31081e-06
6.8233e-10
2.31028e-06
5.82142e-10
2.30985e-06
4.82237e-10
2.30952e-06
3.81666e-10
2.3093e-06
2.79989e-10
2.30918e-06
1.7706e-10
2.30917e-06
7.30103e-11
2.30927e-06
-3.17853e-11
2.30948e-06
-1.36967e-10
2.3098e-06
-2.422e-10
2.31022e-06
-3.4691e-10
2.31075e-06
-4.50678e-10
2.31139e-06
-5.52911e-10
2.31213e-06
-6.53105e-10
2.31297e-06
-7.50578e-10
2.31391e-06
-8.44679e-10
2.31494e-06
-9.34648e-10
2.31606e-06
-1.0197e-09
2.31726e-06
-1.09884e-09
2.31853e-06
-1.1712e-09
2.31988e-06
-1.23565e-09
2.32127e-06
-1.29101e-09
2.32272e-06
-1.33607e-09
2.3242e-06
-1.36946e-09
2.32571e-06
-1.38968e-09
2.32722e-06
-1.39519e-09
2.32872e-06
-1.38422e-09
2.3302e-06
-1.35492e-09
2.33162e-06
-1.30522e-09
2.33298e-06
-1.23289e-09
2.33424e-06
-1.13535e-09
2.33537e-06
-1.00978e-09
2.33635e-06
-8.53066e-10
2.33714e-06
-6.61523e-10
2.3377e-06
-4.30982e-10
2.33798e-06
-1.56553e-10
2.33794e-06
1.67312e-10
2.33752e-06
5.47498e-10
2.33666e-06
9.91955e-10
2.33528e-06
1.51035e-09
2.33329e-06
2.11444e-09
2.3306e-06
2.81873e-09
2.32709e-06
3.64121e-09
2.32262e-06
4.60454e-09
2.31701e-06
5.73754e-09
2.31006e-06
7.07736e-09
2.30151e-06
8.67267e-09
2.29105e-06
1.0588e-08
2.27826e-06
1.29107e-08
2.26263e-06
1.57607e-08
2.24345e-06
1.93063e-08
2.21978e-06
2.37884e-08
2.19035e-06
2.95589e-08
2.15333e-06
3.71433e-08
2.1061e-06
4.73426e-08
2.04482e-06
6.14003e-08
1.96368e-06
8.12674e-08
1.85374e-06
1.10054e-07
1.70078e-06
1.53073e-07
1.4805e-06
2.20399e-07
3.38956e-07
1.14166e-06
2.49037e-06
-7.57722e-10
2.491e-06
-1.21591e-09
2.4917e-06
-1.32996e-09
2.49225e-06
-1.05971e-09
2.4925e-06
-4.43418e-10
2.49229e-06
4.18406e-10
2.4916e-06
1.37558e-09
2.49044e-06
2.26882e-09
2.48892e-06
2.97306e-09
2.48717e-06
3.42424e-09
2.48532e-06
3.61981e-09
2.48348e-06
3.60243e-09
2.48173e-06
3.43585e-09
2.48011e-06
3.18373e-09
2.47864e-06
2.89681e-09
2.47732e-06
2.60828e-09
2.47615e-06
2.33527e-09
2.47511e-06
2.08297e-09
2.47419e-06
1.84952e-09
2.47339e-06
1.63016e-09
2.4727e-06
1.41938e-09
2.47212e-06
1.21259e-09
2.47165e-06
1.00656e-09
2.47129e-06
7.99193e-10
2.47105e-06
5.89587e-10
2.47091e-06
3.77521e-10
2.47089e-06
1.63306e-10
2.47098e-06
-5.24597e-11
2.47119e-06
-2.69018e-10
2.47151e-06
-4.85429e-10
2.47195e-06
-7.00804e-10
2.4725e-06
-9.14096e-10
2.47316e-06
-1.12423e-09
2.47393e-06
-1.32996e-09
2.47481e-06
-1.53005e-09
2.47579e-06
-1.72309e-09
2.47686e-06
-1.90755e-09
2.47803e-06
-2.0817e-09
2.47928e-06
-2.2437e-09
2.48061e-06
-2.39152e-09
2.48202e-06
-2.52294e-09
2.48348e-06
-2.63563e-09
2.48499e-06
-2.72692e-09
2.48653e-06
-2.79405e-09
2.4881e-06
-2.83404e-09
2.48967e-06
-2.84355e-09
2.49123e-06
-2.81906e-09
2.49276e-06
-2.75673e-09
2.49424e-06
-2.65235e-09
2.49564e-06
-2.50121e-09
2.49693e-06
-2.2982e-09
2.4981e-06
-2.03752e-09
2.49909e-06
-1.71262e-09
2.49988e-06
-1.31616e-09
2.50042e-06
-8.39621e-10
2.50068e-06
-2.72885e-10
2.50059e-06
3.95094e-10
2.50009e-06
1.17844e-09
2.49913e-06
2.09313e-09
2.49762e-06
3.15868e-09
2.49547e-06
4.39878e-09
2.49259e-06
5.84244e-09
2.48884e-06
7.52565e-09
2.48409e-06
9.49337e-09
2.47816e-06
1.18025e-08
2.47085e-06
1.45261e-08
2.4619e-06
1.77589e-08
2.451e-06
2.16253e-08
2.43775e-06
2.62918e-08
2.42166e-06
3.19839e-08
2.40209e-06
3.90125e-08
2.3782e-06
4.78126e-08
2.34889e-06
5.90023e-08
2.31269e-06
7.34708e-08
2.26765e-06
9.25088e-08
2.21119e-06
1.17988e-07
2.14002e-06
1.52563e-07
2.05038e-06
1.99826e-07
1.93927e-06
2.64306e-07
1.81004e-06
3.49747e-07
4.45904e-07
1.70322e-06
2.66481e-06
-1.1695e-09
2.66548e-06
-1.89139e-09
2.66623e-06
-2.07331e-09
2.66684e-06
-1.66048e-09
2.66711e-06
-7.10192e-10
2.66692e-06
6.22516e-10
2.6662e-06
2.10577e-09
2.66499e-06
3.49271e-09
2.66339e-06
4.58967e-09
2.66153e-06
5.29579e-09
2.65957e-06
5.60632e-09
2.65761e-06
5.58637e-09
2.65573e-06
5.33398e-09
2.654e-06
4.94763e-09
2.65242e-06
4.50601e-09
2.651e-06
4.06079e-09
2.64974e-06
3.6387e-09
2.64861e-06
3.24822e-09
2.64762e-06
2.88687e-09
2.64675e-06
2.5473e-09
2.646e-06
2.22119e-09
2.64537e-06
1.90153e-09
2.64485e-06
1.58322e-09
2.64445e-06
1.26315e-09
2.64416e-06
9.39871e-10
2.644e-06
6.13058e-10
2.64395e-06
2.83097e-10
2.64403e-06
-4.90248e-11
2.64422e-06
-3.82046e-10
2.64454e-06
-7.14767e-10
2.64497e-06
-1.04557e-09
2.64552e-06
-1.373e-09
2.64619e-06
-1.69527e-09
2.64697e-06
-2.01056e-09
2.64786e-06
-2.3169e-09
2.64885e-06
-2.61214e-09
2.64995e-06
-2.89387e-09
2.65114e-06
-3.15945e-09
2.65242e-06
-3.40605e-09
2.65378e-06
-3.63048e-09
2.65521e-06
-3.82945e-09
2.65669e-06
-3.99916e-09
2.65823e-06
-4.13569e-09
2.6598e-06
-4.23472e-09
2.66139e-06
-4.2916e-09
2.66298e-06
-4.30128e-09
2.66455e-06
-4.25838e-09
2.66609e-06
-4.15691e-09
2.66757e-06
-3.99045e-09
2.66896e-06
-3.75184e-09
2.67024e-06
-3.4332e-09
2.67137e-06
-3.02576e-09
2.67232e-06
-2.51956e-09
2.67305e-06
-1.90333e-09
2.67352e-06
-1.16415e-09
2.67368e-06
-2.87028e-10
2.67348e-06
7.45323e-10
2.67285e-06
1.95346e-09
2.67173e-06
3.36156e-09
2.67003e-06
4.99867e-09
2.66768e-06
6.89993e-09
2.66456e-06
9.10818e-09
2.66056e-06
1.1676e-08
2.65553e-06
1.4669e-08
2.64931e-06
1.81691e-08
2.6417e-06
2.22805e-08
2.63247e-06
2.71365e-08
2.62133e-06
3.29102e-08
2.60794e-06
3.98283e-08
2.59188e-06
4.81916e-08
2.57263e-06
5.84035e-08
2.54957e-06
7.10096e-08
2.52196e-06
8.67527e-08
2.48893e-06
1.06645e-07
2.44952e-06
1.3205e-07
2.40289e-06
1.64761e-07
2.34862e-06
2.0697e-07
2.28762e-06
2.60958e-07
2.22401e-06
3.28052e-07
2.16866e-06
4.05229e-07
4.75471e-07
2.13922e-06
2.85146e-06
-1.60523e-09
2.85219e-06
-2.61569e-09
2.85299e-06
-2.87612e-09
2.85366e-06
-2.32032e-09
2.85398e-06
-1.02347e-09
2.85381e-06
8.03177e-10
2.85308e-06
2.8425e-09
2.85184e-06
4.75581e-09
2.85017e-06
6.27574e-09
2.84822e-06
7.26184e-09
2.84614e-06
7.70497e-09
2.84406e-06
7.69252e-09
2.84206e-06
7.35785e-09
2.84021e-06
6.83574e-09
2.83851e-06
6.23443e-09
2.83698e-06
5.62557e-09
2.83562e-06
5.04668e-09
2.8344e-06
4.51013e-09
2.83332e-06
4.01313e-09
2.83237e-06
3.546e-09
2.83155e-06
3.09776e-09
2.83085e-06
2.6588e-09
2.83028e-06
2.22222e-09
2.82982e-06
1.78386e-09
2.82949e-06
1.34155e-09
2.82928e-06
8.9491e-10
2.8292e-06
4.44497e-10
2.82924e-06
-8.42814e-12
2.82941e-06
-4.62279e-10
2.8297e-06
-9.15082e-10
2.83012e-06
-1.36496e-09
2.83065e-06
-1.80968e-09
2.83131e-06
-2.24695e-09
2.83208e-06
-2.67421e-09
2.83296e-06
-3.08876e-09
2.83395e-06
-3.48762e-09
2.83504e-06
-3.86751e-09
2.83623e-06
-4.22482e-09
2.8375e-06
-4.5556e-09
2.83885e-06
-4.85567e-09
2.84028e-06
-5.12031e-09
2.84175e-06
-5.34449e-09
2.84328e-06
-5.52279e-09
2.84483e-06
-5.64936e-09
2.8464e-06
-5.71782e-09
2.84796e-06
-5.72138e-09
2.8495e-06
-5.6526e-09
2.85099e-06
-5.50352e-09
2.85241e-06
-5.26534e-09
2.85374e-06
-4.92845e-09
2.85494e-06
-4.48218e-09
2.85598e-06
-3.91468e-09
2.85683e-06
-3.21271e-09
2.85744e-06
-2.36112e-09
2.85778e-06
-1.34271e-09
2.85778e-06
-1.37576e-10
2.85741e-06
1.27715e-09
2.85659e-06
2.92838e-09
2.85526e-06
4.8478e-09
2.85335e-06
7.07319e-09
2.85075e-06
9.64989e-09
2.84739e-06
1.26327e-08
2.84313e-06
1.60885e-08
2.83786e-06
2.00994e-08
2.83142e-06
2.47672e-08
2.82364e-06
3.02189e-08
2.81431e-06
3.66149e-08
2.80322e-06
4.41583e-08
2.7901e-06
5.31094e-08
2.77464e-06
6.38028e-08
2.75652e-06
7.66713e-08
2.73541e-06
9.22745e-08
2.71098e-06
1.11333e-07
2.68301e-06
1.34761e-07
2.65153e-06
1.63679e-07
2.61706e-06
1.99376e-07
2.58107e-06
2.43109e-07
2.54658e-06
2.95588e-07
2.51896e-06
3.55821e-07
2.50559e-06
4.18738e-07
4.71239e-07
2.50996e-06
3.05118e-06
-2.06671e-09
3.05196e-06
-3.39219e-09
3.05284e-06
-3.74529e-09
3.05357e-06
-3.05069e-09
3.05396e-06
-1.3997e-09
3.05383e-06
9.39576e-10
3.05313e-06
3.56236e-09
3.05186e-06
6.03449e-09
3.05015e-06
8.01057e-09
3.04812e-06
9.30642e-09
3.04594e-06
9.90589e-09
3.04375e-06
9.91713e-09
3.04162e-06
9.50897e-09
3.03964e-06
8.85359e-09
3.03782e-06
8.09033e-09
3.03617e-06
7.31241e-09
3.03469e-06
6.56951e-09
3.03337e-06
5.87896e-09
3.03219e-06
5.23832e-09
3.03116e-06
4.63614e-09
3.03026e-06
4.05859e-09
3.02949e-06
3.49381e-09
3.02884e-06
2.93308e-09
3.02833e-06
2.37096e-09
3.02794e-06
1.8048e-09
3.02768e-06
1.23388e-09
3.02755e-06
6.59012e-10
3.02755e-06
8.16873e-11
3.02768e-06
-4.95994e-10
3.02793e-06
-1.07173e-09
3.02831e-06
-1.64284e-09
3.02881e-06
-2.20665e-09
3.02944e-06
-2.76013e-09
3.03018e-06
-3.30004e-09
3.03103e-06
-3.82289e-09
3.03199e-06
-4.3248e-09
3.03305e-06
-4.80162e-09
3.0342e-06
-5.24872e-09
3.03544e-06
-5.66112e-09
3.03675e-06
-6.03329e-09
3.03813e-06
-6.35936e-09
3.03956e-06
-6.63286e-09
3.04103e-06
-6.84693e-09
3.04252e-06
-6.99407e-09
3.04402e-06
-7.06627e-09
3.04551e-06
-7.0548e-09
3.04696e-06
-6.95039e-09
3.04836e-06
-6.74287e-09
3.04967e-06
-6.42122e-09
3.05088e-06
-5.97336e-09
3.05194e-06
-5.38591e-09
3.05283e-06
-4.64414e-09
3.05352e-06
-3.73146e-09
3.05395e-06
-2.62922e-09
3.05409e-06
-1.31615e-09
3.05389e-06
2.32065e-10
3.05329e-06
2.04335e-09
3.05224e-06
4.15011e-09
3.05066e-06
6.59051e-09
3.0485e-06
9.40955e-09
3.04565e-06
1.26607e-08
3.04205e-06
1.64079e-08
3.03758e-06
2.07283e-08
3.03213e-06
2.57151e-08
3.02558e-06
3.1482e-08
3.0178e-06
3.81684e-08
3.00864e-06
4.59458e-08
2.99794e-06
5.50262e-08
2.98554e-06
6.56721e-08
2.9713e-06
7.8209e-08
2.95509e-06
9.30382e-08
2.93688e-06
1.10651e-07
2.91674e-06
1.31635e-07
2.89498e-06
1.56674e-07
2.87232e-06
1.86506e-07
2.85003e-06
2.21819e-07
2.83028e-06
2.63016e-07
2.81627e-06
3.09754e-07
2.8121e-06
3.60148e-07
2.82139e-06
4.09599e-07
4.49658e-07
2.84312e-06
3.2649e-06
-2.55576e-09
3.26573e-06
-4.22449e-09
3.26668e-06
-4.68865e-09
3.2675e-06
-3.86482e-09
3.26797e-06
-1.85848e-09
3.26792e-06
1.0062e-09
3.26726e-06
4.23629e-09
3.26601e-06
7.29912e-09
3.26427e-06
9.76725e-09
3.26219e-06
1.1408e-08
3.25993e-06
1.21942e-08
3.25762e-06
1.22524e-08
3.25538e-06
1.17859e-08
3.25326e-06
1.10047e-08
3.25131e-06
1.00807e-08
3.24953e-06
9.13029e-09
3.24793e-06
8.21713e-09
3.24649e-06
7.36478e-09
3.24521e-06
6.57234e-09
3.24408e-06
5.82692e-09
3.24309e-06
5.11268e-09
3.24224e-06
4.41535e-09
3.24152e-06
3.7245e-09
3.24093e-06
3.03344e-09
3.24048e-06
2.33887e-09
3.24016e-06
1.63993e-09
3.23997e-06
9.37369e-10
3.23991e-06
2.33063e-10
3.23999e-06
-4.70514e-10
3.24019e-06
-1.17047e-09
3.24052e-06
-1.8637e-09
3.24097e-06
-2.54674e-09
3.24155e-06
-3.21593e-09
3.24224e-06
-3.86731e-09
3.24304e-06
-4.4965e-09
3.24394e-06
-5.09885e-09
3.24494e-06
-5.66915e-09
3.24603e-06
-6.20181e-09
3.24721e-06
-6.69065e-09
3.24845e-06
-7.12903e-09
3.24975e-06
-7.50964e-09
3.25109e-06
-7.82477e-09
3.25246e-06
-8.06595e-09
3.25385e-06
-8.22415e-09
3.25524e-06
-8.28963e-09
3.2566e-06
-8.25194e-09
3.25791e-06
-8.0998e-09
3.25916e-06
-7.82105e-09
3.26031e-06
-7.40247e-09
3.26134e-06
-6.82961e-09
3.26221e-06
-6.08667e-09
3.2629e-06
-5.15609e-09
3.26336e-06
-4.01843e-09
3.26356e-06
-2.65178e-09
3.26345e-06
-1.03143e-09
3.26299e-06
8.7066e-10
3.26213e-06
3.08638e-09
3.26081e-06
5.65265e-09
3.25897e-06
8.61235e-09
3.25654e-06
1.20156e-08
3.25346e-06
1.5921e-08
3.24965e-06
2.0398e-08
3.24503e-06
2.55286e-08
3.23952e-06
3.14104e-08
3.23302e-06
3.81599e-08
3.22545e-06
4.59163e-08
3.21673e-06
5.48461e-08
3.20678e-06
6.51482e-08
3.19557e-06
7.70593e-08
3.1831e-06
9.08588e-08
3.16944e-06
1.06872e-07
3.15479e-06
1.2547e-07
3.13954e-06
1.47058e-07
3.12434e-06
1.72048e-07
3.11022e-06
2.00801e-07
3.09869e-06
2.33518e-07
3.09182e-06
2.70045e-07
3.09218e-06
3.09567e-07
3.10229e-06
3.50197e-07
3.12353e-06
3.88526e-07
4.19534e-07
3.15381e-06
3.49358e-06
-3.07423e-09
3.49448e-06
-5.11665e-09
3.49551e-06
-5.71459e-09
3.49643e-06
-4.77738e-09
3.497e-06
-2.42193e-09
3.49705e-06
9.74099e-10
3.49647e-06
4.83019e-09
3.49527e-06
8.51414e-09
3.49355e-06
1.15125e-08
3.49144e-06
1.35388e-08
3.48911e-06
1.45497e-08
3.48671e-06
1.46861e-08
3.48434e-06
1.41837e-08
3.48209e-06
1.32899e-08
3.48001e-06
1.22105e-08
3.47809e-06
1.10868e-08
3.47636e-06
9.99828e-09
3.4748e-06
8.97679e-09
3.47341e-06
8.0241e-09
3.47217e-06
7.12712e-09
3.47108e-06
6.26829e-09
3.47014e-06
5.43144e-09
3.46934e-06
4.60439e-09
3.46867e-06
3.77939e-09
3.46815e-06
2.95237e-09
3.46775e-06
2.12211e-09
3.4675e-06
1.28952e-09
3.46738e-06
4.56614e-10
3.46739e-06
-3.73643e-10
3.46753e-06
-1.19795e-09
3.46779e-06
-2.01248e-09
3.46818e-06
-2.81323e-09
3.46868e-06
-3.59584e-09
3.4693e-06
-4.35551e-09
3.47003e-06
-5.08711e-09
3.47085e-06
-5.78502e-09
3.47177e-06
-6.44307e-09
3.47277e-06
-7.05457e-09
3.47385e-06
-7.61228e-09
3.47498e-06
-8.1083e-09
3.47616e-06
-8.53412e-09
3.47738e-06
-8.88052e-09
3.47862e-06
-9.13766e-09
3.47986e-06
-9.29492e-09
3.48108e-06
-9.34096e-09
3.48227e-06
-9.26361e-09
3.4834e-06
-9.04979e-09
3.48444e-06
-8.68543e-09
3.48537e-06
-8.15531e-09
3.48617e-06
-7.44291e-09
3.4868e-06
-6.53017e-09
3.48723e-06
-5.39721e-09
3.48742e-06
-4.02212e-09
3.48734e-06
-2.38045e-09
3.48694e-06
-4.44766e-10
3.48619e-06
1.81553e-09
3.48503e-06
4.43514e-09
3.48342e-06
7.45378e-09
3.48131e-06
1.0917e-08
3.47864e-06
1.48771e-08
3.47536e-06
1.93947e-08
3.47141e-06
2.45397e-08
3.46674e-06
3.03935e-08
3.46129e-06
3.70506e-08
3.45503e-06
4.46208e-08
3.4479e-06
5.32312e-08
3.43991e-06
6.30285e-08
3.43107e-06
7.41806e-08
3.42144e-06
8.68773e-08
3.41116e-06
1.0133e-07
3.40045e-06
1.17765e-07
3.38969e-06
1.36416e-07
3.37943e-06
1.57505e-07
3.37045e-06
1.81206e-07
3.36385e-06
2.07592e-07
3.36099e-06
2.36551e-07
3.36355e-06
2.67662e-07
3.37326e-06
3.00036e-07
3.3915e-06
3.3214e-07
3.41849e-06
3.61708e-07
3.85884e-07
3.45231e-06
3.73829e-06
-3.62383e-09
3.73925e-06
-6.07252e-09
3.74037e-06
-6.83154e-09
3.7414e-06
-5.80329e-09
3.7421e-06
-3.11318e-09
3.74228e-06
8.11987e-10
3.74182e-06
5.30691e-09
3.74071e-06
9.6398e-09
3.73904e-06
1.32081e-08
3.73694e-06
1.5666e-08
3.73457e-06
1.69471e-08
3.73208e-06
1.72014e-08
3.72961e-06
1.66932e-08
3.72723e-06
1.57069e-08
3.725e-06
1.44821e-08
3.72295e-06
1.31874e-08
3.72108e-06
1.19202e-08
3.71939e-06
1.07229e-08
3.71788e-06
9.6016e-09
3.71653e-06
8.5444e-09
3.71533e-06
7.53287e-09
3.71429e-06
6.54935e-09
3.7134e-06
5.58015e-09
3.71265e-06
4.61635e-09
3.71204e-06
3.65319e-09
3.71157e-06
2.68916e-09
3.71124e-06
1.725e-09
3.71104e-06
7.63047e-10
3.71098e-06
-1.93508e-10
3.71104e-06
-1.14073e-09
3.71122e-06
-2.07433e-09
3.71153e-06
-2.9895e-09
3.71195e-06
-3.88136e-09
3.71248e-06
-4.74422e-09
3.71311e-06
-5.57208e-09
3.71383e-06
-6.35836e-09
3.71464e-06
-7.09602e-09
3.71552e-06
-7.77731e-09
3.71646e-06
-8.39384e-09
3.71745e-06
-8.93651e-09
3.71849e-06
-9.39558e-09
3.71954e-06
-9.76054e-09
3.7206e-06
-1.00201e-08
3.72165e-06
-1.01623e-08
3.72266e-06
-1.01742e-08
3.72363e-06
-1.00421e-08
3.72452e-06
-9.75129e-09
3.72531e-06
-9.28609e-09
3.72598e-06
-8.62955e-09
3.7265e-06
-7.76337e-09
3.72683e-06
-6.6677e-09
3.72696e-06
-5.32097e-09
3.72683e-06
-3.69939e-09
3.72643e-06
-1.77681e-09
3.72572e-06
4.75704e-10
3.72465e-06
3.09013e-09
3.72318e-06
6.10242e-09
3.72129e-06
9.55308e-09
3.71893e-06
1.34877e-08
3.71605e-06
1.79579e-08
3.71263e-06
2.3022e-08
3.70863e-06
2.87461e-08
3.70403e-06
3.52051e-08
3.6988e-06
4.24832e-08
3.69295e-06
5.06752e-08
3.6865e-06
5.98865e-08
3.6795e-06
7.02332e-08
3.67204e-06
8.18409e-08
3.66428e-06
9.48421e-08
3.65644e-06
1.09371e-07
3.64885e-06
1.25556e-07
3.64196e-06
1.43506e-07
3.63637e-06
1.63291e-07
3.63286e-06
1.84912e-07
3.63238e-06
2.08263e-07
3.63605e-06
2.33081e-07
3.64502e-06
2.58878e-07
3.66037e-06
2.84879e-07
3.68272e-06
3.09975e-07
3.71187e-06
3.32742e-07
3.51598e-07
3.74634e-06
4.00013e-06
-4.20597e-09
4.00116e-06
-7.0956e-09
4.00238e-06
-8.04756e-09
4.00354e-06
-6.95687e-09
4.00439e-06
-3.95455e-09
4.00473e-06
4.8899e-10
4.00442e-06
5.62876e-09
4.00345e-06
1.0635e-08
4.00187e-06
1.48135e-08
3.99981e-06
1.7753e-08
3.99743e-06
1.93568e-08
3.99489e-06
1.97766e-08
3.99232e-06
1.93013e-08
3.98982e-06
1.8249e-08
3.98745e-06
1.68944e-08
3.98525e-06
1.54346e-08
3.98324e-06
1.39879e-08
3.98142e-06
1.26091e-08
3.97977e-06
1.13116e-08
3.9783e-06
1.00857e-08
3.977e-06
8.91333e-09
3.97586e-06
7.77595e-09
3.97486e-06
6.65876e-09
3.97402e-06
5.55172e-09
3.97333e-06
4.44936e-09
3.97277e-06
3.34973e-09
3.97235e-06
2.25352e-09
3.97207e-06
1.16311e-09
3.97191e-06
8.21388e-11
3.97188e-06
-9.85101e-10
3.97198e-06
-2.03371e-09
3.97218e-06
-3.05831e-09
3.9725e-06
-4.05323e-09
3.97292e-06
-5.01205e-09
3.97343e-06
-5.92785e-09
3.97402e-06
-6.79321e-09
3.97469e-06
-7.60007e-09
3.97542e-06
-8.33968e-09
3.9762e-06
-9.00257e-09
3.97702e-06
-9.57858e-09
3.97786e-06
-1.00567e-08
3.97871e-06
-1.04254e-08
3.97955e-06
-1.06719e-08
3.98037e-06
-1.07831e-08
3.98113e-06
-1.07447e-08
3.98183e-06
-1.05417e-08
3.98244e-06
-1.01581e-08
3.98294e-06
-9.57679e-09
3.98329e-06
-8.77957e-09
3.98349e-06
-7.74692e-09
3.98349e-06
-6.45779e-09
3.98327e-06
-4.88946e-09
3.9828e-06
-3.01732e-09
3.98206e-06
-8.14456e-10
3.981e-06
1.74817e-09
3.97961e-06
4.70249e-09
3.97785e-06
8.08391e-09
3.97569e-06
1.19315e-08
3.97311e-06
1.62882e-08
3.97009e-06
2.12016e-08
3.9666e-06
2.67243e-08
3.96266e-06
3.29141e-08
3.95825e-06
3.98341e-08
3.9534e-06
4.7553e-08
3.94815e-06
5.61444e-08
3.94257e-06
6.56859e-08
3.93677e-06
7.62575e-08
3.93089e-06
8.79386e-08
3.92514e-06
1.00804e-07
3.91981e-06
1.14917e-07
3.91526e-06
1.30321e-07
3.91195e-06
1.47029e-07
3.91045e-06
1.65004e-07
3.91143e-06
1.84146e-07
3.91563e-06
2.04263e-07
3.92387e-06
2.25049e-07
3.9369e-06
2.46058e-07
3.95529e-06
2.66691e-07
3.97927e-06
2.86194e-07
4.00851e-06
3.03704e-07
3.18355e-07
4.04195e-06
4.28031e-06
-4.8217e-09
4.28141e-06
-8.18842e-09
4.28273e-06
-9.36855e-09
4.28404e-06
-8.25009e-09
4.28506e-06
-4.9656e-09
4.28559e-06
-2.24719e-11
4.28547e-06
5.76095e-09
4.28467e-06
1.14606e-08
4.28322e-06
1.62886e-08
4.28124e-06
1.97624e-08
4.27888e-06
2.17465e-08
4.2763e-06
2.23866e-08
4.27366e-06
2.19897e-08
4.27105e-06
2.09053e-08
4.26855e-06
1.9442e-08
4.26621e-06
1.78275e-08
4.26405e-06
1.62031e-08
4.26209e-06
1.46396e-08
4.26031e-06
1.31592e-08
4.25872e-06
1.17569e-08
4.2573e-06
1.0416e-08
4.25604e-06
9.11811e-09
4.25495e-06
7.84754e-09
4.254e-06
6.59346e-09
4.25321e-06
5.34961e-09
4.25256e-06
4.11365e-09
4.25204e-06
2.88604e-09
4.25166e-06
1.66925e-09
4.2514e-06
4.67084e-10
4.25127e-06
-7.15659e-10
4.25125e-06
-1.87352e-09
4.25134e-06
-3.00052e-09
4.25153e-06
-4.09036e-09
4.25181e-06
-5.13584e-09
4.25218e-06
-6.12913e-09
4.25262e-06
-7.06195e-09
4.25312e-06
-7.92536e-09
4.25367e-06
-8.70965e-09
4.25426e-06
-9.40436e-09
4.25486e-06
-9.99832e-09
4.25548e-06
-1.04795e-08
4.25609e-06
-1.08352e-08
4.25667e-06
-1.10518e-08
4.25721e-06
-1.11149e-08
4.25768e-06
-1.10094e-08
4.25807e-06
-1.07191e-08
4.25836e-06
-1.02272e-08
4.25852e-06
-9.51564e-09
4.25852e-06
-8.56542e-09
4.25836e-06
-7.35639e-09
4.25799e-06
-5.86704e-09
4.2574e-06
-4.07446e-09
4.25657e-06
-1.95409e-09
4.25547e-06
5.20257e-10
4.25407e-06
3.37655e-09
4.25236e-06
6.64518e-09
4.25032e-06
1.03589e-08
4.24794e-06
1.45531e-08
4.24519e-06
1.92656e-08
4.24209e-06
2.45373e-08
4.23864e-06
3.04115e-08
4.23486e-06
3.69343e-08
4.23078e-06
4.41536e-08
4.22645e-06
5.2119e-08
4.22195e-06
6.08798e-08
4.21738e-06
7.04839e-08
4.2129e-06
8.09751e-08
4.20868e-06
9.23894e-08
4.20496e-06
1.04751e-07
4.20205e-06
1.18066e-07
4.20028e-06
1.32316e-07
4.20009e-06
1.47449e-07
4.20195e-06
1.6337e-07
4.20639e-06
1.7993e-07
4.21396e-06
1.96916e-07
4.22519e-06
2.14044e-07
4.24051e-06
2.30952e-07
4.26022e-06
2.47204e-07
4.28431e-06
2.62311e-07
4.31247e-06
2.75761e-07
2.87082e-07
4.34396e-06
4.58011e-06
-5.47162e-09
4.58128e-06
-9.35245e-09
4.58272e-06
-1.07986e-08
4.58417e-06
-9.69067e-09
4.58538e-06
-6.16e-09
4.58611e-06
-7.43256e-10
4.58622e-06
5.67585e-09
4.58562e-06
1.20832e-08
4.58434e-06
1.75972e-08
4.58247e-06
2.16583e-08
4.58017e-06
2.40836e-08
4.57759e-06
2.50039e-08
4.57488e-06
2.47371e-08
4.57218e-06
2.36604e-08
4.56956e-06
2.21153e-08
4.56708e-06
2.03611e-08
4.56478e-06
1.8565e-08
4.56268e-06
1.68159e-08
4.56076e-06
1.5148e-08
4.55904e-06
1.35631e-08
4.55749e-06
1.20473e-08
4.55612e-06
1.05832e-08
4.55492e-06
9.15498e-09
4.55386e-06
7.75105e-09
4.55296e-06
6.36462e-09
4.5522e-06
4.99282e-09
4.55158e-06
3.63586e-09
4.55108e-06
2.29625e-09
4.55071e-06
9.7796e-10
4.55045e-06
-3.13932e-10
4.5503e-06
-1.57342e-09
4.55025e-06
-2.79364e-09
4.5503e-06
-3.96828e-09
4.55042e-06
-5.08913e-09
4.55061e-06
-6.14727e-09
4.55086e-06
-7.13387e-09
4.55116e-06
-8.03912e-09
4.5515e-06
-8.85247e-09
4.55185e-06
-9.56263e-09
4.55222e-06
-1.01574e-08
4.55257e-06
-1.06242e-08
4.55289e-06
-1.09492e-08
4.55317e-06
-1.11181e-08
4.5534e-06
-1.11158e-08
4.55354e-06
-1.09265e-08
4.55358e-06
-1.05334e-08
4.5535e-06
-9.91906e-09
4.55328e-06
-9.06529e-09
4.55291e-06
-7.95287e-09
4.55235e-06
-6.56172e-09
4.5516e-06
-4.87071e-09
4.55062e-06
-2.85768e-09
4.54941e-06
-4.99322e-10
4.54795e-06
2.22857e-09
4.54622e-06
5.35165e-09
4.54422e-06
8.89701e-09
4.54194e-06
1.2893e-08
4.53937e-06
1.73693e-08
4.53653e-06
2.23566e-08
4.53344e-06
2.78866e-08
4.53011e-06
3.39914e-08
4.52659e-06
4.07031e-08
4.52295e-06
4.80527e-08
4.51925e-06
5.60694e-08
4.5156e-06
6.47786e-08
4.51214e-06
7.42e-08
4.50902e-06
8.43453e-08
4.50644e-06
9.52148e-08
4.50464e-06
1.06794e-07
4.50391e-06
1.19049e-07
4.50455e-06
1.31922e-07
4.50691e-06
1.45327e-07
4.51138e-06
1.59144e-07
4.51833e-06
1.73217e-07
4.52814e-06
1.87347e-07
4.54113e-06
2.01297e-07
4.55752e-06
2.14795e-07
4.57742e-06
2.27538e-07
4.60074e-06
2.39216e-07
4.62721e-06
2.49529e-07
2.58223e-07
4.65629e-06
4.90091e-06
-6.15565e-09
4.90215e-06
-1.05875e-08
4.9037e-06
-1.23383e-08
4.9053e-06
-1.12815e-08
4.9067e-06
-7.54423e-09
4.90766e-06
-1.68494e-09
4.908e-06
5.35573e-09
4.90763e-06
1.24795e-08
4.90654e-06
1.87115e-08
4.90482e-06
2.34104e-08
4.9026e-06
2.63378e-08
4.90005e-06
2.76002e-08
4.89731e-06
2.75195e-08
4.89453e-06
2.64951e-08
4.8918e-06
2.49003e-08
4.8892e-06
2.30266e-08
4.88676e-06
2.10688e-08
4.88451e-06
1.91372e-08
4.88246e-06
1.72805e-08
4.8806e-06
1.55091e-08
4.87893e-06
1.38141e-08
4.87743e-06
1.218e-08
4.8761e-06
1.05913e-08
4.87493e-06
9.03647e-09
4.87391e-06
7.50797e-09
4.87302e-06
6.00255e-09
4.87227e-06
4.52014e-09
4.87165e-06
3.06311e-09
4.87114e-06
1.63558e-09
4.87073e-06
2.42892e-10
4.87043e-06
-1.10864e-09
4.87021e-06
-2.4105e-09
4.87008e-06
-3.65779e-09
4.87001e-06
-4.84074e-09
4.87e-06
-5.94896e-09
4.87003e-06
-6.97376e-09
4.8701e-06
-7.90437e-09
4.87018e-06
-8.72949e-09
4.87026e-06
-9.43732e-09
4.87034e-06
-1.00147e-08
4.87038e-06
-1.04488e-08
4.87038e-06
-1.0725e-08
4.87032e-06
-1.08286e-08
4.87018e-06
-1.07441e-08
4.86995e-06
-1.04553e-08
4.86961e-06
-9.94563e-09
4.86913e-06
-9.19754e-09
4.86851e-06
-8.19308e-09
4.86772e-06
-6.91364e-09
4.86675e-06
-5.34003e-09
4.86559e-06
-3.45236e-09
4.86423e-06
-1.23024e-09
4.86264e-06
1.34707e-09
4.86083e-06
4.30088e-09
4.8588e-06
7.65318e-09
4.85653e-06
1.14263e-08
4.85405e-06
1.56427e-08
4.85136e-06
2.03247e-08
4.84849e-06
2.54946e-08
4.84548e-06
3.11733e-08
4.84236e-06
3.73808e-08
4.8392e-06
4.41346e-08
4.83607e-06
5.1449e-08
4.83307e-06
5.93339e-08
4.83033e-06
6.77933e-08
4.82797e-06
7.68234e-08
4.82617e-06
8.64104e-08
4.82513e-06
9.65288e-08
4.82505e-06
1.07138e-07
4.82618e-06
1.18182e-07
4.82878e-06
1.29582e-07
4.83313e-06
1.41242e-07
4.83949e-06
1.5304e-07
4.84813e-06
1.64832e-07
4.85928e-06
1.76454e-07
4.87311e-06
1.8772e-07
4.88972e-06
1.98433e-07
4.90912e-06
2.08393e-07
4.93118e-06
2.17403e-07
4.95566e-06
2.25291e-07
2.31923e-07
4.98221e-06
5.24418e-06
-6.87298e-09
5.24549e-06
-1.18914e-08
5.24714e-06
-1.39847e-08
5.24889e-06
-1.30192e-08
5.25048e-06
-9.11581e-09
5.25166e-06
-2.84782e-09
5.25224e-06
4.79564e-09
5.25211e-06
1.26385e-08
5.25124e-06
1.96145e-08
5.24968e-06
2.49967e-08
5.24758e-06
2.84838e-08
5.24507e-06
3.01498e-08
5.24233e-06
3.03124e-08
5.23949e-06
2.93884e-08
5.23667e-06
2.77803e-08
5.23395e-06
2.58118e-08
5.23138e-06
2.37073e-08
5.229e-06
2.16008e-08
5.22681e-06
1.95578e-08
5.22481e-06
1.75998e-08
5.223e-06
1.57243e-08
5.22137e-06
1.3919e-08
5.2199e-06
1.21698e-08
5.21859e-06
1.04651e-08
5.21743e-06
8.79722e-09
5.21641e-06
7.16253e-09
5.21551e-06
5.56069e-09
5.21473e-06
3.99391e-09
5.21405e-06
2.46635e-09
5.21348e-06
9.83584e-10
5.21299e-06
-4.47619e-10
5.21257e-06
-1.81941e-09
5.21223e-06
-3.12437e-09
5.21193e-06
-4.35305e-09
5.21168e-06
-5.4952e-09
5.21145e-06
-6.54091e-09
5.21124e-06
-7.47889e-09
5.21102e-06
-8.29736e-09
5.21079e-06
-8.9841e-09
5.21053e-06
-9.52561e-09
5.21023e-06
-9.90839e-09
5.20986e-06
-1.01181e-08
5.20942e-06
-1.01396e-08
5.20888e-06
-9.95765e-09
5.20824e-06
-9.55629e-09
5.20747e-06
-8.91922e-09
5.20656e-06
-8.02972e-09
5.2055e-06
-6.87077e-09
5.20428e-06
-5.42505e-09
5.20289e-06
-3.67501e-09
5.20132e-06
-1.60304e-09
5.19956e-06
8.08381e-10
5.1976e-06
3.5767e-09
5.19547e-06
6.71937e-09
5.19315e-06
1.02534e-08
5.19067e-06
1.41954e-08
5.18803e-06
1.85607e-08
5.18528e-06
2.33639e-08
5.18244e-06
2.86174e-08
5.17957e-06
3.43319e-08
5.17673e-06
4.05149e-08
5.17398e-06
4.71703e-08
5.17142e-06
5.42974e-08
5.16915e-06
6.18898e-08
5.1673e-06
6.99344e-08
5.166e-06
7.84095e-08
5.16541e-06
8.72844e-08
5.1657e-06
9.6517e-08
5.16707e-06
1.06053e-07
5.16971e-06
1.15826e-07
5.17382e-06
1.25755e-07
5.17959e-06
1.35744e-07
5.18723e-06
1.45684e-07
5.19688e-06
1.55455e-07
5.20868e-06
1.64928e-07
5.22271e-06
1.73964e-07
5.23898e-06
1.82428e-07
5.25745e-06
1.90187e-07
5.278e-06
1.9712e-07
5.30043e-06
2.0313e-07
2.08146e-07
5.32446e-06
5.61149e-06
-7.622e-09
5.61286e-06
-1.32605e-08
5.61462e-06
-1.57312e-08
5.61651e-06
-1.48947e-08
5.61827e-06
-1.08638e-08
5.61966e-06
-4.22104e-09
5.62048e-06
4.00376e-09
5.62058e-06
1.25632e-08
5.61992e-06
2.03021e-08
5.61855e-06
2.64058e-08
5.61657e-06
3.05045e-08
5.61414e-06
3.26313e-08
5.61141e-06
3.30932e-08
5.60854e-06
3.23189e-08
5.60564e-06
3.07371e-08
5.60282e-06
2.87032e-08
5.60014e-06
2.64721e-08
5.59762e-06
2.42032e-08
5.59528e-06
2.19812e-08
5.59314e-06
1.98408e-08
5.59118e-06
1.77875e-08
5.5894e-06
1.58135e-08
5.58778e-06
1.39067e-08
5.58632e-06
1.20562e-08
5.585e-06
1.02546e-08
5.58381e-06
8.49777e-09
5.58274e-06
6.78513e-09
5.58177e-06
5.11876e-09
5.5809e-06
3.50278e-09
5.58012e-06
1.94292e-09
5.57941e-06
4.46128e-10
5.57876e-06
-9.79619e-10
5.57815e-06
-2.32591e-09
5.57759e-06
-3.58318e-09
5.57705e-06
-4.74105e-09
5.57651e-06
-5.78884e-09
5.57598e-06
-6.71521e-09
5.57542e-06
-7.50778e-09
5.57483e-06
-8.15458e-09
5.57419e-06
-8.64173e-09
5.57349e-06
-8.95534e-09
5.57271e-06
-9.08229e-09
5.57183e-06
-9.00697e-09
5.57086e-06
-8.71492e-09
5.56976e-06
-8.19102e-09
5.56854e-06
-7.41992e-09
5.56717e-06
-6.38622e-09
5.56566e-06
-5.07455e-09
5.56399e-06
-3.46964e-09
5.56216e-06
-1.55643e-09
5.56017e-06
6.7955e-10
5.55802e-06
3.25233e-09
5.55572e-06
6.17537e-09
5.55328e-06
9.46125e-09
5.55071e-06
1.31214e-08
5.54805e-06
1.71658e-08
5.54531e-06
2.16027e-08
5.54254e-06
2.64382e-08
5.53979e-06
3.16758e-08
5.53711e-06
3.73158e-08
5.53458e-06
4.3355e-08
5.53227e-06
4.97854e-08
5.53028e-06
5.65943e-08
5.52871e-06
6.37629e-08
5.52769e-06
7.12658e-08
5.52733e-06
7.90702e-08
5.52779e-06
8.71351e-08
5.5292e-06
9.54111e-08
5.53171e-06
1.0384e-07
5.53549e-06
1.12353e-07
5.54067e-06
1.20876e-07
5.54738e-06
1.29323e-07
5.55576e-06
1.37604e-07
5.56589e-06
1.45623e-07
5.57782e-06
1.53283e-07
5.59159e-06
1.60486e-07
5.60717e-06
1.67138e-07
5.62449e-06
1.73156e-07
5.64343e-06
1.78466e-07
5.66382e-06
1.83013e-07
1.86765e-07
5.68548e-06
6.00452e-06
-8.40027e-09
6.00595e-06
-1.4689e-08
6.0078e-06
-1.75681e-08
6.00981e-06
-1.68936e-08
6.01173e-06
-1.27697e-08
6.01332e-06
-5.78388e-09
6.01435e-06
3.00001e-09
6.01467e-06
1.22692e-08
6.01422e-06
2.07828e-08
6.01303e-06
2.76379e-08
6.01119e-06
3.23916e-08
6.00884e-06
3.50307e-08
6.00614e-06
3.58442e-08
6.00325e-06
3.5268e-08
6.0003e-06
3.37539e-08
5.9974e-06
3.16874e-08
5.99459e-06
2.93544e-08
5.99195e-06
2.69411e-08
5.98947e-06
2.45529e-08
5.98718e-06
2.22395e-08
5.98506e-06
2.00158e-08
5.98311e-06
1.78798e-08
5.98133e-06
1.58223e-08
5.97968e-06
1.3834e-08
5.97817e-06
1.19074e-08
5.97679e-06
1.00386e-08
5.97551e-06
8.22683e-09
5.97432e-06
6.47383e-09
5.97322e-06
4.78376e-09
5.97218e-06
3.16231e-09
5.97121e-06
1.61656e-09
5.97027e-06
1.54598e-10
5.96937e-06
-1.21464e-09
5.96849e-06
-2.48158e-09
5.96761e-06
-3.63567e-09
5.96672e-06
-4.66587e-09
5.96581e-06
-5.56089e-09
5.96485e-06
-6.30872e-09
5.96385e-06
-6.89678e-09
5.96278e-06
-7.312e-09
5.96163e-06
-7.54102e-09
5.96039e-06
-7.57051e-09
5.95905e-06
-7.38656e-09
5.95759e-06
-6.97547e-09
5.95601e-06
-6.32325e-09
5.9543e-06
-5.41654e-09
5.95245e-06
-4.2415e-09
5.95046e-06
-2.78521e-09
5.94833e-06
-1.03512e-09
5.94607e-06
1.02056e-09
5.94366e-06
3.39276e-09
5.94114e-06
6.09153e-09
5.93851e-06
9.1256e-09
5.93578e-06
1.25023e-08
5.933e-06
1.6227e-08
5.93018e-06
2.03033e-08
5.92738e-06
2.47322e-08
5.92463e-06
2.95122e-08
5.92199e-06
3.46383e-08
5.91954e-06
4.01024e-08
5.91733e-06
4.5892e-08
5.91545e-06
5.19906e-08
5.91399e-06
5.83762e-08
5.91306e-06
6.50222e-08
5.91276e-06
7.18957e-08
5.9132e-06
7.89582e-08
5.91449e-06
8.61651e-08
5.91676e-06
9.34656e-08
5.92012e-06