/*--------------------------------*- C++ -*----------------------------------*\
| =========                 |                                                 |
| \\      /  F ield         | OpenFOAM: The Open Source CFD Toolbox           |
|  \\    /   O peration     | Version:  2112                                  |
|   \\  /    A nd           | Website:  www.openfoam.com                      |
|    \\/     M anipulation  |                                                 |
\*---------------------------------------------------------------------------*/
FoamFile
{
    version     2.0;
    format      ascii;
    arch        "LSB;label=32;scalar=64";
    class       volVectorField;
    location    "1";
    object      U;
}
// * * * * * * * * * * * * * * * * * * * * * * * * * * * * * * * * * * * * * //

dimensions      [0 1 -1 0 0 0 0];

internalField   nonuniform List<vector> 
12013
(
(0.100006 -1.48342e-06 0)
(0.100027 -2.41482e-06 0)
(0.100056 -2.68812e-06 0)
(0.100083 -2.17674e-06 0)
(0.1001 -9.1161e-07 0)
(0.100102 9.33095e-07 0)
(0.100084 3.06041e-06 0)
(0.100046 5.12653e-06 0)
(0.0999911 6.83997e-06 0)
(0.0999242 8.02672e-06 0)
(0.0998509 8.64834e-06 0)
(0.0997762 8.7744e-06 0)
(0.099704 8.53182e-06 0)
(0.0996367 8.06064e-06 0)
(0.0995754 7.47861e-06 0)
(0.0995204 6.86634e-06 0)
(0.0994715 6.26857e-06 0)
(0.0994283 5.7011e-06 0)
(0.0993904 5.16147e-06 0)
(0.0993574 4.63739e-06 0)
(0.0993291 4.11508e-06 0)
(0.0993054 3.58107e-06 0)
(0.0992863 3.02541e-06 0)
(0.0992718 2.44127e-06 0)
(0.0992619 1.82468e-06 0)
(0.0992568 1.17355e-06 0)
(0.0992564 4.87439e-07 0)
(0.0992608 -2.32471e-07 0)
(0.0992701 -9.84684e-07 0)
(0.0992843 -1.76785e-06 0)
(0.0993033 -2.57873e-06 0)
(0.0993272 -3.41495e-06 0)
(0.0993559 -4.27248e-06 0)
(0.0993893 -5.14759e-06 0)
(0.0994274 -6.03503e-06 0)
(0.09947 -6.92907e-06 0)
(0.0995169 -7.8226e-06 0)
(0.099568 -8.70795e-06 0)
(0.099623 -9.57503e-06 0)
(0.0996817 -1.04141e-05 0)
(0.0997437 -1.12119e-05 0)
(0.0998088 -1.19541e-05 0)
(0.0998764 -1.26251e-05 0)
(0.0999461 -1.32066e-05 0)
(0.100017 -1.36777e-05 0)
(0.10009 -1.40156e-05 0)
(0.100162 -1.41934e-05 0)
(0.100235 -1.41817e-05 0)
(0.100306 -1.3947e-05 0)
(0.100374 -1.34513e-05 0)
(0.10044 -1.26507e-05 0)
(0.100501 -1.14952e-05 0)
(0.100557 -9.92789e-06 0)
(0.100605 -7.88186e-06 0)
(0.100645 -5.27985e-06 0)
(0.100675 -2.03052e-06 0)
(0.100692 1.974e-06 0)
(0.100695 6.86246e-06 0)
(0.10068 1.27888e-05 0)
(0.100645 1.99401e-05 0)
(0.100587 2.85454e-05 0)
(0.100501 3.88876e-05 0)
(0.100383 5.13197e-05 0)
(0.100227 6.62885e-05 0)
(0.100027 8.43651e-05 0)
(0.0997743 0.00010629 0)
(0.0994595 0.000133038 0)
(0.0990703 0.000165913 0)
(0.0985912 0.000206691 0)
(0.0980026 0.000257839 0)
(0.0972786 0.000322854 0)
(0.0963849 0.000406806 0)
(0.0952748 0.00051723 0)
(0.0938835 0.000665592 0)
(0.0921187 0.000869804 0)
(0.0898467 0.00115855 0)
(0.0868682 0.00157892 0)
(0.0828661 0.00221241 0)
(0.077342 0.00322457 0)
(0.0696958 0.00507997 0)
(0.0610734 0.00987476 0)
(0.100006 -4.54789e-06 0)
(0.100027 -7.42362e-06 0)
(0.100056 -8.27242e-06 0)
(0.100083 -6.70988e-06 0)
(0.100101 -2.83427e-06 0)
(0.100103 2.82399e-06 0)
(0.100085 9.35265e-06 0)
(0.100048 1.5698e-05 0)
(0.0999932 2.09625e-05 0)
(0.0999266 2.46135e-05 0)
(0.0998535 2.65306e-05 0)
(0.0997789 2.69253e-05 0)
(0.0997068 2.61888e-05 0)
(0.0996394 2.47489e-05 0)
(0.0995779 2.29666e-05 0)
(0.0995228 2.10909e-05 0)
(0.0994737 1.92594e-05 0)
(0.0994303 1.75205e-05 0)
(0.0993922 1.58661e-05 0)
(0.099359 1.42605e-05 0)
(0.0993304 1.26598e-05 0)
(0.0993064 1.10241e-05 0)
(0.099287 9.32262e-06 0)
(0.0992722 7.53413e-06 0)
(0.0992619 5.64667e-06 0)
(0.0992563 3.65403e-06 0)
(0.0992555 1.55518e-06 0)
(0.0992594 -6.4699e-07 0)
(0.0992681 -2.94818e-06 0)
(0.0992817 -5.34231e-06 0)
(0.0993001 -7.82191e-06 0)
(0.0993232 -1.03779e-05 0)
(0.0993511 -1.29989e-05 0)
(0.0993837 -1.56721e-05 0)
(0.0994208 -1.83822e-05 0)
(0.0994624 -2.11116e-05 0)
(0.0995083 -2.38394e-05 0)
(0.0995582 -2.65403e-05 0)
(0.099612 -2.91848e-05 0)
(0.0996694 -3.17409e-05 0)
(0.0997301 -3.41697e-05 0)
(0.0997937 -3.64284e-05 0)
(0.0998598 -3.84669e-05 0)
(0.0999279 -4.02296e-05 0)
(0.0999976 -4.16534e-05 0)
(0.100068 -4.26669e-05 0)
(0.100139 -4.31891e-05 0)
(0.100209 -4.31299e-05 0)
(0.100278 -4.23866e-05 0)
(0.100345 -4.08423e-05 0)
(0.100408 -3.83635e-05 0)
(0.100468 -3.47977e-05 0)
(0.100521 -2.99698e-05 0)
(0.100567 -2.36773e-05 0)
(0.100605 -1.56835e-05 0)
(0.100633 -5.71085e-06 0)
(0.100648 6.57273e-06 0)
(0.100649 2.15541e-05 0)
(0.100632 3.97015e-05 0)
(0.100596 6.15822e-05 0)
(0.100537 8.78887e-05 0)
(0.10045 0.000119475 0)
(0.100332 0.000157406 0)
(0.100177 0.000203023 0)
(0.0999788 0.000258034 0)
(0.09973 0.00032465 0)
(0.0994214 0.000405764 0)
(0.0990416 0.000505223 0)
(0.0985766 0.000628234 0)
(0.0980089 0.00078196 0)
(0.0973157 0.000976452 0)
(0.096468 0.00122609 0)
(0.0954276 0.00155184 0)
(0.0941437 0.00198492 0)
(0.0925488 0.00257256 0)
(0.0905533 0.00338711 0)
(0.0880404 0.00453944 0)
(0.0848555 0.0061976 0)
(0.0808251 0.00861195 0)
(0.0760011 0.0120821 0)
(0.0717897 0.016493 0)
(0.100005 -7.79298e-06 0)
(0.100026 -1.28017e-05 0)
(0.100055 -1.4294e-05 0)
(0.100083 -1.16404e-05 0)
(0.100101 -5.00592e-06 0)
(0.100104 4.70425e-06 0)
(0.100088 1.59257e-05 0)
(0.100051 2.68485e-05 0)
(0.0999975 3.59287e-05 0)
(0.0999318 4.22447e-05 0)
(0.0998593 4.55837e-05 0)
(0.0997851 4.63029e-05 0)
(0.0997131 4.50729e-05 0)
(0.0996457 4.26261e-05 0)
(0.0995842 3.9583e-05 0)
(0.0995288 3.63739e-05 0)
(0.0994794 3.32361e-05 0)
(0.0994356 3.02548e-05 0)
(0.0993971 2.74178e-05 0)
(0.0993634 2.46654e-05 0)
(0.0993344 2.19226e-05 0)
(0.0993099 1.91216e-05 0)
(0.0992899 1.62101e-05 0)
(0.0992744 1.31517e-05 0)
(0.0992635 9.92548e-06 0)
(0.0992572 6.52168e-06 0)
(0.0992555 2.93833e-06 0)
(0.0992585 -8.20075e-07 0)
(0.0992662 -4.74548e-06 0)
(0.0992787 -8.82718e-06 0)
(0.0992958 -1.30533e-05 0)
(0.0993176 -1.74069e-05 0)
(0.0993441 -2.1869e-05 0)
(0.0993751 -2.6417e-05 0)
(0.0994105 -3.1025e-05 0)
(0.0994502 -3.56624e-05 0)
(0.0994941 -4.02925e-05 0)
(0.0995419 -4.48721e-05 0)
(0.0995935 -4.93519e-05 0)
(0.0996484 -5.36745e-05 0)
(0.0997065 -5.77751e-05 0)
(0.0997674 -6.15788e-05 0)
(0.0998305 -6.50002e-05 0)
(0.0998956 -6.79438e-05 0)
(0.099962 -7.03017e-05 0)
(0.100029 -7.19511e-05 0)
(0.100096 -7.27548e-05 0)
(0.100163 -7.25571e-05 0)
(0.100228 -7.11831e-05 0)
(0.100291 -6.84326e-05 0)
(0.10035 -6.40788e-05 0)
(0.100405 -5.78626e-05 0)
(0.100454 -4.9485e-05 0)
(0.100497 -3.86015e-05 0)
(0.10053 -2.48108e-05 0)
(0.100553 -7.64298e-06 0)
(0.100565 1.34609e-05 0)
(0.100561 3.9154e-05 0)
(0.100541 7.02225e-05 0)
(0.100502 0.000107616 0)
(0.10044 0.000152492 0)
(0.100351 0.000206269 0)
(0.100233 0.000270708 0)
(0.100079 0.000348015 0)
(0.0998835 0.000440982 0)
(0.0996408 0.00055319 0)
(0.0993422 0.000689283 0)
(0.0989782 0.000855366 0)
(0.0985369 0.00105958 0)
(0.0980042 0.00131294 0)
(0.0973627 0.00163055 0)
(0.0965911 0.00203344 0)
(0.0956639 0.00255125 0)
(0.0945504 0.0032261 0)
(0.0932159 0.00411807 0)
(0.0916251 0.00531197 0)
(0.0897503 0.00692338 0)
(0.08759 0.00909755 0)
(0.0852139 0.0119854 0)
(0.0829032 0.0156166 0)
(0.0814198 0.0193721 0)
(0.100005 -1.12157e-05 0)
(0.100026 -1.85674e-05 0)
(0.100055 -2.07878e-05 0)
(0.100083 -1.70328e-05 0)
(0.100103 -7.51895e-06 0)
(0.100107 6.45874e-06 0)
(0.100091 2.26537e-05 0)
(0.100056 3.84579e-05 0)
(0.100005 5.16404e-05 0)
(0.0999402 6.08568e-05 0)
(0.0998689 6.57858e-05 0)
(0.0997955 6.69286e-05 0)
(0.0997239 6.52426e-05 0)
(0.0996566 6.17804e-05 0)
(0.0995949 5.74375e-05 0)
(0.0995392 5.28379e-05 0)
(0.0994894 4.83282e-05 0)
(0.0994451 4.40369e-05 0)
(0.099406 3.99511e-05 0)
(0.0993717 3.59871e-05 0)
(0.0993421 3.20403e-05 0)
(0.0993169 2.80141e-05 0)
(0.0992962 2.38331e-05 0)
(0.0992799 1.94464e-05 0)
(0.0992681 1.48231e-05 0)
(0.0992608 9.94978e-06 0)
(0.099258 4.82368e-06 0)
(0.0992598 -5.48876e-07 0)
(0.0992661 -6.15616e-06 0)
(0.0992771 -1.19823e-05 0)
(0.0992926 -1.80097e-05 0)
(0.0993126 -2.42137e-05 0)
(0.099337 -3.05669e-05 0)
(0.0993658 -3.70367e-05 0)
(0.0993989 -4.35851e-05 0)
(0.099436 -5.01671e-05 0)
(0.0994772 -5.67295e-05 0)
(0.099522 -6.32101e-05 0)
(0.0995703 -6.95374e-05 0)
(0.0996218 -7.56289e-05 0)
(0.0996763 -8.13905e-05 0)
(0.0997332 -8.67134e-05 0)
(0.0997923 -9.14761e-05 0)
(0.099853 -9.55406e-05 0)
(0.0999148 -9.87507e-05 0)
(0.0999771 -0.000100931 0)
(0.100039 -0.000101885 0)
(0.100101 -0.000101388 0)
(0.10016 -9.91906e-05 0)
(0.100218 -9.50064e-05 0)
(0.100271 -8.85117e-05 0)
(0.10032 -7.93369e-05 0)
(0.100363 -6.70579e-05 0)
(0.1004 -5.11841e-05 0)
(0.100427 -3.11474e-05 0)
(0.100444 -6.28298e-06 0)
(0.10045 2.41874e-05 0)
(0.100441 6.11853e-05 0)
(0.100416 0.000105808 0)
(0.100372 0.000159374 0)
(0.100307 0.000223483 0)
(0.100217 0.000300083 0)
(0.100098 0.000391575 0)
(0.0999456 0.000500942 0)
(0.0997559 0.000631923 0)
(0.0995228 0.000789255 0)
(0.0992396 0.000978995 0)
(0.098899 0.00120898 0)
(0.0984923 0.00148943 0)
(0.0980095 0.00183386 0)
(0.0974397 0.00226022 0)
(0.096771 0.00279257 0)
(0.0959913 0.00346326 0)
(0.0950905 0.00431555 0)
(0.0940637 0.00540643 0)
(0.092918 0.00680808 0)
(0.0916847 0.00860418 0)
(0.0904371 0.0108722 0)
(0.089316 0.013635 0)
(0.0885596 0.0167385 0)
(0.0884694 0.0195761 0)
(0.100005 -1.48366e-05 0)
(0.100026 -2.47483e-05 0)
(0.100055 -2.78082e-05 0)
(0.100084 -2.29773e-05 0)
(0.100104 -1.0505e-05 0)
(0.10011 7.91959e-06 0)
(0.100097 2.93459e-05 0)
(0.100064 5.03351e-05 0)
(0.100015 6.79263e-05 0)
(0.0999524 8.03194e-05 0)
(0.0998828 8.70583e-05 0)
(0.0998106 8.87768e-05 0)
(0.0997397 8.67209e-05 0)
(0.0996727 8.22734e-05 0)
(0.0996109 7.66179e-05 0)
(0.0995548 7.05863e-05 0)
(0.0995045 6.46473e-05 0)
(0.0994597 5.89808e-05 0)
(0.0994199 5.35788e-05 0)
(0.099385 4.83379e-05 0)
(0.0993546 4.31241e-05 0)
(0.0993287 3.78128e-05 0)
(0.0993071 3.23064e-05 0)
(0.0992899 2.65382e-05 0)
(0.099277 2.04676e-05 0)
(0.0992685 1.40766e-05 0)
(0.0992644 7.36265e-06 0)
(0.0992648 3.33487e-07 0)
(0.0992695 -6.99557e-06 0)
(0.0992786 -1.46029e-05 0)
(0.0992921 -2.2463e-05 0)
(0.0993099 -3.05445e-05 0)
(0.099332 -3.88105e-05 0)
(0.0993581 -4.72172e-05 0)
(0.0993883 -5.57133e-05 0)
(0.0994223 -6.42383e-05 0)
(0.09946 -7.27216e-05 0)
(0.0995012 -8.10805e-05 0)
(0.0995455 -8.92198e-05 0)
(0.0995928 -9.70302e-05 0)
(0.0996427 -0.000104386 0)
(0.0996948 -0.000111145 0)
(0.0997488 -0.000117145 0)
(0.0998041 -0.000122205 0)
(0.0998602 -0.000126119 0)
(0.0999165 -0.000128656 0)
(0.0999724 -0.000129557 0)
(0.100027 -0.000128529 0)
(0.10008 -0.000125245 0)
(0.10013 -0.00011933 0)
(0.100177 -0.000110363 0)
(0.100219 -9.78626e-05 0)
(0.100254 -8.12786e-05 0)
(0.100283 -5.99776e-05 0)
(0.100303 -3.32266e-05 0)
(0.100314 -1.72877e-07 0)
(0.100312 4.01765e-05 0)
(0.100297 8.89915e-05 0)
(0.100267 0.00014766 0)
(0.100218 0.000217837 0)
(0.10015 0.000301516 0)
(0.100058 0.000401103 0)
(0.0999398 0.000519536 0)
(0.099792 0.000660421 0)
(0.0996106 0.000828221 0)
(0.0993915 0.0010285 0)
(0.0991299 0.00126823 0)
(0.0988207 0.00155625 0)
(0.0984589 0.00190378 0)
(0.0980393 0.00232517 0)
(0.0975572 0.00283877 0)
(0.0970096 0.00346804 0)
(0.0963964 0.0042427 0)
(0.0957234 0.00519969 0)
(0.0950058 0.00638315 0)
(0.0942746 0.00784173 0)
(0.0935846 0.00961989 0)
(0.0930225 0.011737 0)
(0.0927117 0.0141451 0)
(0.092796 0.0166561 0)
(0.093365 0.0188457 0)
(0.100005 -1.86731e-05 0)
(0.100026 -3.1374e-05 0)
(0.100055 -3.54183e-05 0)
(0.100084 -2.95816e-05 0)
(0.100106 -1.4124e-05 0)
(0.100114 8.87717e-06 0)
(0.100103 3.57602e-05 0)
(0.100074 6.22293e-05 0)
(0.100028 8.45581e-05 0)
(0.0999685 0.000100449 0)
(0.0999012 0.000109278 0)
(0.0998307 0.000111789 0)
(0.0997609 0.000109508 0)
(0.0996943 0.000104152 0)
(0.0996326 9.72049e-05 0)
(0.0995762 8.9721e-05 0)
(0.0995254 8.23052e-05 0)
(0.09948 7.5201e-05 0)
(0.0994395 6.84149e-05 0)
(0.0994039 6.18289e-05 0)
(0.0993727 5.52835e-05 0)
(0.0993459 4.86276e-05 0)
(0.0993235 4.17421e-05 0)
(0.0993053 3.45437e-05 0)
(0.0992913 2.69834e-05 0)
(0.0992815 1.90378e-05 0)
(0.099276 1.07039e-05 0)
(0.0992748 1.99154e-06 0)
(0.0992777 -7.07931e-06 0)
(0.0992849 -1.64819e-05 0)
(0.0992961 -2.61823e-05 0)
(0.0993115 -3.6141e-05 0)
(0.0993307 -4.63105e-05 0)
(0.0993539 -5.66349e-05 0)
(0.0993808 -6.70483e-05 0)
(0.0994112 -7.74739e-05 0)
(0.099445 -8.78219e-05 0)
(0.0994819 -9.79881e-05 0)
(0.0995217 -0.000107852 0)
(0.0995641 -0.000117276 0)
(0.0996088 -0.000126102 0)
(0.0996554 -0.000134151 0)
(0.0997034 -0.000141221 0)
(0.0997524 -0.000147085 0)
(0.0998019 -0.000151486 0)
(0.0998513 -0.000154136 0)
(0.0999 -0.000154714 0)
(0.0999473 -0.000152856 0)
(0.0999925 -0.000148156 0)
(0.100035 -0.000140154 0)
(0.100073 -0.00012833 0)
(0.100106 -0.000112095 0)
(0.100134 -9.07765e-05 0)
(0.100154 -6.36031e-05 0)
(0.100167 -2.96878e-05 0)
(0.100169 1.19958e-05 0)
(0.10016 6.2635e-05 0)
(0.100139 0.000123621 0)
(0.100103 0.000196591 0)
(0.10005 0.000283485 0)
(0.0999787 0.000386608 0)
(0.0998868 0.00050872 0)
(0.0997716 0.000653142 0)
(0.0996307 0.000823893 0)
(0.0994614 0.00102586 0)
(0.0992609 0.00126501 0)
(0.0990267 0.00154866 0)
(0.0987563 0.00188581 0)
(0.0984479 0.00228753 0)
(0.0981006 0.00276742 0)
(0.0977155 0.0033421 0)
(0.0972964 0.00403161 0)
(0.0968517 0.00485962 0)
(0.0963966 0.00585302 0)
(0.0959561 0.00704016 0)
(0.0955684 0.00844657 0)
(0.0952886 0.0100861 0)
(0.0951888 0.0119447 0)
(0.0953522 0.0139548 0)
(0.0958506 0.0159626 0)
(0.0966911 0.0177054 0)
(0.100005 -2.27403e-05 0)
(0.100026 -3.84762e-05 0)
(0.100055 -4.36875e-05 0)
(0.100085 -3.69668e-05 0)
(0.100108 -1.8561e-05 0)
(0.100119 9.08522e-06 0)
(0.100112 4.16052e-05 0)
(0.100086 7.38341e-05 0)
(0.100044 0.000101247 0)
(0.0999883 0.000121005 0)
(0.0999241 0.00013227 0)
(0.0998559 0.000135863 0)
(0.0997875 0.000133572 0)
(0.0997217 0.000127441 0)
(0.0996601 0.000119265 0)
(0.0996036 0.000110334 0)
(0.0995524 0.000101408 0)
(0.0995063 9.28084e-05 0)
(0.0994652 8.45695e-05 0)
(0.0994288 7.65674e-05 0)
(0.0993969 6.86232e-05 0)
(0.0993693 6.05622e-05 0)
(0.0993459 5.22447e-05 0)
(0.0993267 4.35728e-05 0)
(0.0993116 3.44872e-05 0)
(0.0993006 2.49603e-05 0)
(0.0992936 1.4988e-05 0)
(0.0992907 4.58261e-06 0)
(0.0992917 -6.23107e-06 0)
(0.0992967 -1.742e-05 0)
(0.0993056 -2.89423e-05 0)
(0.0993183 -4.07481e-05 0)
(0.0993346 -5.27792e-05 0)
(0.0993545 -6.49659e-05 0)
(0.0993778 -7.72269e-05 0)
(0.0994043 -8.9468e-05 0)
(0.0994339 -0.000101578 0)
(0.0994662 -0.000113431 0)
(0.099501 -0.000124879 0)
(0.099538 -0.000135755 0)
(0.099577 -0.000145867 0)
(0.0996174 -0.000154999 0)
(0.0996589 -0.000162908 0)
(0.099701 -0.000169319 0)
(0.0997432 -0.000173924 0)
(0.0997851 -0.000176378 0)
(0.0998258 -0.000176298 0)
(0.0998649 -0.000173251 0)
(0.0999016 -0.000166754 0)
(0.0999351 -0.000156263 0)
(0.0999646 -0.000141165 0)
(0.0999891 -0.000120767 0)
(0.100008 -9.42854e-05 0)
(0.10002 -6.08236e-05 0)
(0.100023 -1.93566e-05 0)
(0.100018 3.12897e-05 0)
(0.100002 9.24658e-05 0)
(0.0999739 0.000165743 0)
(0.0999327 0.000252951 0)
(0.0998767 0.000356233 0)
(0.0998044 0.000478107 0)
(0.0997141 0.000621541 0)
(0.0996042 0.000790053 0)
(0.0994732 0.00098782 0)
(0.0993196 0.00121981 0)
(0.0991423 0.00149196 0)
(0.0989404 0.00181131 0)
(0.0987141 0.00218627 0)
(0.0984642 0.00262675 0)
(0.0981935 0.00314438 0)
(0.097907 0.00375259 0)
(0.0976129 0.00446652 0)
(0.0973241 0.0053025 0)
(0.0970595 0.00627702 0)
(0.0968456 0.00740442 0)
(0.0967176 0.0086929 0)
(0.09672 0.0101379 0)
(0.0969032 0.0117124 0)
(0.0973158 0.0133543 0)
(0.0979872 0.0149553 0)
(0.0988995 0.0163619 0)
(0.100005 -2.70523e-05 0)
(0.100025 -4.60881e-05 0)
(0.100055 -5.26877e-05 0)
(0.100086 -4.52624e-05 0)
(0.100111 -2.40176e-05 0)
(0.100124 8.27017e-06 0)
(0.100121 4.65512e-05 0)
(0.1001 8.47944e-05 0)
(0.100063 0.00011765 0)
(0.100011 0.000141691 0)
(0.099951 0.000155809 0)
(0.0998857 0.000160854 0)
(0.0998192 0.000158841 0)
(0.0997545 0.000152135 0)
(0.0996934 0.000142839 0)
(0.0996368 0.000132499 0)
(0.0995852 0.000122046 0)
(0.0995386 0.000111901 0)
(0.0994969 0.000102142 0)
(0.0994598 9.26511e-05 0)
(0.0994272 8.32384e-05 0)
(0.0993988 7.37108e-05 0)
(0.0993745 6.39102e-05 0)
(0.0993543 5.37249e-05 0)
(0.0993381 4.30862e-05 0)
(0.0993258 3.19617e-05 0)
(0.0993174 2.03466e-05 0)
(0.0993128 8.25568e-06 0)
(0.0993119 -4.28173e-06 0)
(0.0993147 -1.7225e-05 0)
(0.0993211 -3.05234e-05 0)
(0.099331 -4.41167e-05 0)
(0.0993443 -5.79336e-05 0)
(0.0993607 -7.18904e-05 0)
(0.0993803 -8.58892e-05 0)
(0.0994026 -9.9816e-05 0)
(0.0994277 -0.000113539 0)
(0.0994551 -0.000126907 0)
(0.0994846 -0.000139745 0)
(0.0995159 -0.000151854 0)
(0.0995487 -0.00016301 0)
(0.0995826 -0.000172958 0)
(0.0996172 -0.000181412 0)
(0.099652 -0.000188051 0)
(0.0996865 -0.000192517 0)
(0.0997203 -0.000194411 0)
(0.0997527 -0.000193285 0)
(0.0997832 -0.000188643 0)
(0.099811 -0.000179929 0)
(0.0998354 -0.00016652 0)
(0.0998558 -0.000147719 0)
(0.0998713 -0.000122743 0)
(0.099881 -9.07074e-05 0)
(0.099884 -5.0611e-05 0)
(0.0998794 -1.31756e-06 0)
(0.0998663 5.84594e-05 0)
(0.0998435 0.000130194 0)
(0.09981 0.000215579 0)
(0.0997649 0.000316564 0)
(0.0997069 0.000435398 0)
(0.0996352 0.000574686 0)
(0.0995487 0.000737447 0)
(0.0994466 0.000927186 0)
(0.0993284 0.00114797 0)
(0.0991938 0.00140453 0)
(0.0990429 0.00170232 0)
(0.0988768 0.00204763 0)
(0.0986972 0.00244763 0)
(0.0985073 0.00291042 0)
(0.0983121 0.00344496 0)
(0.0981187 0.00406091 0)
(0.0979376 0.00476818 0)
(0.0977825 0.00557627 0)
(0.097672 0.00649298 0)
(0.0976291 0.00752248 0)
(0.0976818 0.00866241 0)
(0.0978614 0.0098999 0)
(0.0981994 0.0112067 0)
(0.0987208 0.0125344 0)
(0.0994343 0.0138124 0)
(0.100319 0.0149529 0)
(0.100004 -3.16218e-05 0)
(0.100025 -5.42406e-05 0)
(0.100055 -6.24898e-05 0)
(0.100087 -5.45964e-05 0)
(0.100114 -3.0697e-05 0)
(0.10013 6.14833e-06 0)
(0.100131 5.02502e-05 0)
(0.100115 9.47268e-05 0)
(0.100083 0.000133388 0)
(0.100037 0.000162166 0)
(0.0999811 0.00017962 0)
(0.0999192 0.000186565 0)
(0.0998551 0.000185201 0)
(0.0997919 0.000178186 0)
(0.0997314 0.000167936 0)
(0.0996751 0.000156261 0)
(0.0996233 0.000144288 0)
(0.0995763 0.000132561 0)
(0.0995341 0.000121218 0)
(0.0994964 0.000110167 0)
(0.0994631 9.92153e-05 0)
(0.099434 8.81596e-05 0)
(0.0994089 7.68275e-05 0)
(0.0993878 6.5094e-05 0)
(0.0993705 5.28825e-05 0)
(0.0993569 4.01559e-05 0)
(0.099347 2.69082e-05 0)
(0.0993407 1.3157e-05 0)
(0.0993379 -1.06306e-06 0)
(0.0993385 -1.57037e-05 0)
(0.0993424 -3.07046e-05 0)
(0.0993494 -4.59936e-05 0)
(0.0993595 -6.14865e-05 0)
(0.0993724 -7.70838e-05 0)
(0.099388 -9.26688e-05 0)
(0.0994061 -0.000108108 0)
(0.0994264 -0.000123246 0)
(0.0994487 -0.000137907 0)
(0.0994727 -0.000151888 0)
(0.0994981 -0.000164959 0)
(0.0995245 -0.00017686 0)
(0.0995516 -0.0001873 0)
(0.099579 -0.00019595 0)
(0.0996063 -0.000202446 0)
(0.0996329 -0.000206379 0)
(0.0996584 -0.000207299 0)
(0.0996823 -0.000204702 0)
(0.0997039 -0.000198029 0)
(0.0997228 -0.00018666 0)
(0.0997381 -0.000169905 0)
(0.0997494 -0.000146993 0)
(0.0997559 -0.000117067 0)
(0.0997568 -7.91627e-05 0)
(0.0997515 -3.22006e-05 0)
(0.0997391 2.50298e-05 0)
(0.099719 9.38884e-05 0)
(0.0996904 0.000175919 0)
(0.0996526 0.000272868 0)
(0.0996048 0.000386719 0)
(0.0995465 0.00051972 0)
(0.0994773 0.000674429 0)
(0.0993968 0.000853749 0)
(0.0993049 0.00106097 0)
(0.0992019 0.00129982 0)
(0.0990886 0.00157447 0)
(0.0989663 0.00188961 0)
(0.0988371 0.00225037 0)
(0.0987042 0.00266238 0)
(0.0985719 0.00313159 0)
(0.0984463 0.00366413 0)
(0.0983355 0.00426598 0)
(0.0982496 0.00494251 0)
(0.0982016 0.00569776 0)
(0.0982069 0.00653339 0)
(0.0982835 0.00744738 0)
(0.0984513 0.00843229 0)
(0.0987304 0.00947326 0)
(0.0991383 0.0105461 0)
(0.0996866 0.0116162 0)
(0.100375 0.012639 0)
(0.101186 0.013565 0)
(0.100004 -3.64589e-05 0)
(0.100025 -6.29593e-05 0)
(0.100055 -7.31541e-05 0)
(0.100087 -6.50848e-05 0)
(0.100116 -3.87875e-05 0)
(0.100136 2.45207e-06 0)
(0.100141 5.23636e-05 0)
(0.100131 0.00010325 0)
(0.100105 0.000148068 0)
(0.100064 0.000182064 0)
(0.100013 0.000203392 0)
(0.099955 0.000212758 0)
(0.0998938 0.000212488 0)
(0.0998325 0.000205502 0)
(0.0997731 0.00019452 0)
(0.0997172 0.00018163 0)
(0.0996655 0.000168175 0)
(0.0996183 0.000154845 0)
(0.0995757 0.000141867 0)
(0.0995376 0.000129189 0)
(0.0995037 0.000116633 0)
(0.099474 0.000103992 0)
(0.0994481 9.10844e-05 0)
(0.0994261 7.77763e-05 0)
(0.0994078 6.39829e-05 0)
(0.099393 4.96629e-05 0)
(0.0993816 3.48101e-05 0)
(0.0993736 1.94442e-05 0)
(0.0993688 3.60556e-06 0)
(0.0993671 -1.26494e-05 0)
(0.0993684 -2.92495e-05 0)
(0.0993725 -4.61089e-05 0)
(0.0993793 -6.31318e-05 0)
(0.0993886 -8.02011e-05 0)
(0.0994002 -9.71794e-05 0)
(0.0994138 -0.000113912 0)
(0.0994293 -0.000130222 0)
(0.0994463 -0.000145906 0)
(0.0994647 -0.000160733 0)
(0.099484 -0.000174442 0)
(0.0995039 -0.00018674 0)
(0.0995241 -0.000197297 0)
(0.0995442 -0.000205747 0)
(0.0995637 -0.000211683 0)
(0.0995823 -0.000214652 0)
(0.0995995 -0.000214154 0)
(0.0996148 -0.000209637 0)
(0.0996277 -0.00020049 0)
(0.0996377 -0.000186039 0)
(0.0996442 -0.000165536 0)
(0.0996467 -0.000138159 0)
(0.0996445 -0.000102992 0)
(0.0996373 -5.90229e-05 0)
(0.0996243 -5.12489e-06 0)
(0.099605 5.99442e-05 0)
(0.099579 0.000137573 0)
(0.0995457 0.000229312 0)
(0.0995049 0.000336888 0)
(0.0994561 0.000462225 0)
(0.0993992 0.000607465 0)
(0.0993343 0.00077499 0)
(0.0992617 0.000967436 0)
(0.0991819 0.00118771 0)
(0.0990958 0.00143899 0)
(0.0990051 0.00172472 0)
(0.0989117 0.00204859 0)
(0.0988186 0.00241445 0)
(0.0987295 0.00282623 0)
(0.0986494 0.00328779 0)
(0.0985844 0.00380268 0)
(0.0985422 0.00437382 0)
(0.0985317 0.00500308 0)
(0.0985636 0.00569074 0)
(0.0986497 0.00643478 0)
(0.0988028 0.00723014 0)
(0.0990358 0.00806785 0)
(0.0993605 0.00893427 0)
(0.0997859 0.00981064 0)
(0.100316 0.0106732 0)
(0.100947 0.0114945 0)
(0.101667 0.0122464 0)
(0.100004 -4.15702e-05 0)
(0.100024 -7.22611e-05 0)
(0.100054 -8.47239e-05 0)
(0.100088 -7.68146e-05 0)
(0.100118 -4.84388e-05 0)
(0.100141 -3.04087e-06 0)
(0.100151 5.25999e-05 0)
(0.100146 0.000110017 0)
(0.100126 0.000161321 0)
(0.100091 0.000201024 0)
(0.100045 0.0002268 0)
(0.0999915 0.000239163 0)
(0.0999337 0.000240498 0)
(0.0998746 0.000233945 0)
(0.0998168 0.000222513 0)
(0.0997617 0.000208575 0)
(0.0997103 0.00019371 0)
(0.0996632 0.000178786 0)
(0.0996203 0.000164139 0)
(0.0995818 0.000149783 0)
(0.0995475 0.000135567 0)
(0.0995172 0.000121293 0)
(0.0994907 0.000106778 0)
(0.0994678 9.18808e-05 0)
(0.0994484 7.65111e-05 0)
(0.0994323 6.06245e-05 0)
(0.0994195 4.42138e-05 0)
(0.0994097 2.73023e-05 0)
(0.0994029 9.93558e-06 0)
(0.0993989 -7.82126e-06 0)
(0.0993975 -2.58856e-05 0)
(0.0993986 -4.41561e-05 0)
(0.099402 -6.25255e-05 0)
(0.0994075 -8.08574e-05 0)
(0.0994149 -9.89938e-05 0)
(0.099424 -0.000116759 0)
(0.0994346 -0.000133951 0)
(0.0994462 -0.000150341 0)
(0.0994587 -0.000165671 0)
(0.0994718 -0.000179649 0)
(0.0994852 -0.000191949 0)
(0.0994984 -0.00020221 0)
(0.0995111 -0.000210027 0)
(0.099523 -0.000214956 0)
(0.0995337 -0.000216506 0)
(0.0995426 -0.000214136 0)
(0.0995495 -0.000207253 0)
(0.0995539 -0.000195206 0)
(0.0995553 -0.000177279 0)
(0.0995534 -0.000152689 0)
(0.0995475 -0.000120576 0)
(0.0995375 -7.99998e-05 0)
(0.0995227 -2.99239e-05 0)
(0.099503 3.07796e-05 0)
(0.0994778 0.000103348 0)
(0.0994471 0.000189144 0)
(0.0994105 0.000289659 0)
(0.0993681 0.000406527 0)
(0.0993199 0.000541528 0)
(0.0992661 0.000696598 0)
(0.0992071 0.000873835 0)
(0.0991438 0.00107549 0)
(0.0990772 0.00130396 0)
(0.0990088 0.00156177 0)
(0.0989405 0.00185152 0)
(0.0988749 0.00217585 0)
(0.098815 0.0025373 0)
(0.098765 0.00293828 0)
(0.0987295 0.00338079 0)
(0.0987141 0.00386633 0)
(0.0987253 0.00439553 0)
(0.0987705 0.00496793 0)
(0.0988577 0.00558159 0)
(0.0989952 0.00623269 0)
(0.0991915 0.00691521 0)
(0.0994543 0.0076206 0)
(0.0997898 0.00833765 0)
(0.100202 0.00905253 0)
(0.100691 0.00974938 0)
(0.101254 0.0104112 0)
(0.10188 0.0110219 0)
(0.100004 -4.69579e-05 0)
(0.100024 -8.21515e-05 0)
(0.100054 -9.72195e-05 0)
(0.100088 -8.98324e-05 0)
(0.10012 -5.97412e-05 0)
(0.100145 -1.0479e-05 0)
(0.100159 5.07473e-05 0)
(0.10016 0.000114761 0)
(0.100145 0.000172837 0)
(0.100116 0.000218718 0)
(0.100076 0.000249524 0)
(0.100027 0.000265492 0)
(0.0999727 0.000268991 0)
(0.0999164 0.000263329 0)
(0.0998604 0.000251784 0)
(0.0998065 0.000237016 0)
(0.0997558 0.000220862 0)
(0.0997089 0.000204387 0)
(0.0996661 0.000188069 0)
(0.0996274 0.000172006 0)
(0.0995927 0.000156096 0)
(0.0995618 0.000140161 0)
(0.0995346 0.000124024 0)
(0.0995108 0.000107543 0)
(0.0994904 9.06233e-05 0)
(0.099473 7.32191e-05 0)
(0.0994586 5.53234e-05 0)
(0.099447 3.69627e-05 0)
(0.099438 1.81887e-05 0)
(0.0994315 -9.24877e-07 0)
(0.0994274 -2.02856e-05 0)
(0.0994253 -3.97831e-05 0)
(0.0994252 -5.9274e-05 0)
(0.0994268 -7.86096e-05 0)
(0.09943 -9.76222e-05 0)
(0.0994344 -0.000116113 0)
(0.0994398 -0.000133854 0)
(0.0994459 -0.000150592 0)
(0.0994526 -0.00016604 0)
(0.0994594 -0.00017988 0)
(0.0994661 -0.000191755 0)
(0.0994723 -0.000201274 0)
(0.0994777 -0.000208002 0)
(0.099482 -0.000211464 0)
(0.0994848 -0.000211137 0)
(0.0994858 -0.000206449 0)
(0.0994845 -0.000196779 0)
(0.0994808 -0.000181448 0)
(0.0994741 -0.00015972 0)
(0.0994642 -0.000130792 0)
(0.0994508 -9.37968e-05 0)
(0.0994336 -4.77909e-05 0)
(0.0994123 8.24319e-06 0)
(0.0993868 7.53993e-05 0)
(0.099357 0.000154867 0)
(0.0993228 0.000247927 0)
(0.0992843 0.000355954 0)
(0.0992417 0.000480419 0)
(0.0991954 0.000622887 0)
(0.0991459 0.000785012 0)
(0.0990941 0.000968527 0)
(0.099041 0.00117523 0)
(0.098988 0.00140694 0)
(0.0989368 0.00166549 0)
(0.0988896 0.00195264 0)
(0.0988491 0.00227002 0)
(0.0988184 0.00261905 0)
(0.0988011 0.00300081 0)
(0.0988014 0.00341592 0)
(0.0988241 0.00386434 0)
(0.0988743 0.00434526 0)
(0.0989575 0.00485686 0)
(0.0990793 0.00539613 0)
(0.0992452 0.00595874 0)
(0.0994604 0.00653889 0)
(0.0997291 0.00712928 0)
(0.100054 0.00772121 0)
(0.100437 0.00830483 0)
(0.100876 0.00886958 0)
(0.101368 0.00940495 0)
(0.101906 0.00990142 0)
(0.100004 -5.26184e-05 0)
(0.100024 -9.2621e-05 0)
(0.100053 -0.000110631 0)
(0.100087 -0.000104136 0)
(0.10012 -7.27123e-05 0)
(0.100148 -1.99158e-05 0)
(0.100166 4.6701e-05 0)
(0.100171 0.000117318 0)
(0.100162 0.000182398 0)
(0.100138 0.000234889 0)
(0.100103 0.000271286 0)
(0.100059 0.00029147 0)
(0.100009 0.000297713 0)
(0.0999557 0.000293439 0)
(0.099902 0.000282166 0)
(0.0998496 0.000266838 0)
(0.0997999 0.000249562 0)
(0.0997535 0.000231627 0)
(0.0997109 0.000213675 0)
(0.0996722 0.000195914 0)
(0.0996372 0.000178308 0)
(0.0996058 0.000160713 0)
(0.0995779 0.000142968 0)
(0.0995532 0.000124935 0)
(0.0995316 0.000106521 0)
(0.0995128 8.76782e-05 0)
(0.0994967 6.84021e-05 0)
(0.0994831 4.87223e-05 0)
(0.0994719 2.86974e-05 0)
(0.0994627 8.41074e-06 0)
(0.0994556 -1.20333e-05 0)
(0.0994502 -3.25106e-05 0)
(0.0994464 -5.28596e-05 0)
(0.0994439 -7.2914e-05 0)
(0.0994426 -9.24867e-05 0)
(0.0994421 -0.000111356 0)
(0.0994423 -0.000129274 0)
(0.0994428 -0.000145961 0)
(0.0994435 -0.000161109 0)
(0.0994439 -0.000174373 0)
(0.0994439 -0.000185371 0)
(0.0994432 -0.000193687 0)
(0.0994413 -0.000198865 0)
(0.0994382 -0.000200402 0)
(0.0994334 -0.000197757 0)
(0.0994266 -0.000190339 0)
(0.0994176 -0.000177512 0)
(0.0994062 -0.000158587 0)
(0.099392 -0.000132825 0)
(0.0993749 -9.94288e-05 0)
(0.0993547 -5.75471e-05 0)
(0.0993312 -6.26955e-06 0)
(0.0993044 5.53664e-05 0)
(0.0992743 0.000128392 0)
(0.0992409 0.0002139 0)
(0.0992044 0.000313042 0)
(0.0991652 0.000427025 0)
(0.0991236 0.000557105 0)
(0.0990803 0.00070458 0)
(0.0990361 0.000870772 0)
(0.0989919 0.00105701 0)
(0.0989491 0.00126461 0)
(0.0989091 0.00149482 0)
(0.0988739 0.00174879 0)
(0.0988456 0.00202754 0)
(0.0988266 0.00233185 0)
(0.0988198 0.00266221 0)
(0.0988284 0.00301871 0)
(0.0988557 0.00340098 0)
(0.0989055 0.00380806 0)
(0.0989816 0.00423831 0)
(0.0990879 0.00468928 0)
(0.099228 0.00515773 0)
(0.0994054 0.00563948 0)
(0.0996229 0.0061295 0)
(0.0998825 0.00662194 0)
(0.100185 0.0071103 0)
(0.100531 0.00758764 0)
(0.100918 0.00804697 0)
(0.101343 0.00848163 0)
(0.101801 0.00888593 0)
(0.100003 -5.85418e-05 0)
(0.100023 -0.000103645 0)
(0.100052 -0.000124916 0)
(0.100086 -0.00011967 0)
(0.10012 -8.72901e-05 0)
(0.100149 -3.13005e-05 0)
(0.10017 4.04791e-05 0)
(0.100179 0.000117653 0)
(0.100174 0.000189905 0)
(0.100156 0.000249371 0)
(0.100126 0.000291872 0)
(0.100087 0.000316852 0)
(0.100041 0.000326415 0)
(0.0999908 0.000324045 0)
(0.0999397 0.000313465 0)
(0.0998892 0.000297893 0)
(0.0998407 0.000279717 0)
(0.0997952 0.000260465 0)
(0.099753 0.000240969 0)
(0.0997142 0.000221566 0)
(0.099679 0.000202306 0)
(0.0996472 0.000183095 0)
(0.0996185 0.000163795 0)
(0.0995928 0.000144281 0)
(0.0995699 0.000124464 0)
(0.0995495 0.0001043 0)
(0.0995316 8.37861e-05 0)
(0.0995158 6.29574e-05 0)
(0.099502 4.18793e-05 0)
(0.0994901 2.06455e-05 0)
(0.0994797 -6.25298e-07 0)
(0.0994708 -2.17899e-05 0)
(0.099463 -4.26903e-05 0)
(0.0994563 -6.31366e-05 0)
(0.0994502 -8.29116e-05 0)
(0.0994447 -0.000101775 0)
(0.0994395 -0.00011946 0)
(0.0994342 -0.00013567 0)
(0.0994288 -0.000150071 0)
(0.0994228 -0.000162302 0)
(0.0994162 -0.000171962 0)
(0.0994085 -0.000178615 0)
(0.0993996 -0.000181787 0)
(0.0993891 -0.000180967 0)
(0.099377 -0.000175602 0)
(0.0993629 -0.000165098 0)
(0.0993466 -0.000148817 0)
(0.099328 -0.000126082 0)
(0.099307 -9.61705e-05 0)
(0.0992834 -5.83158e-05 0)
(0.0992572 -1.17103e-05 0)
(0.0992284 4.44883e-05 0)
(0.0991971 0.000111169 0)
(0.0991633 0.000189259 0)
(0.0991275 0.000279717 0)
(0.0990898 0.000383528 0)
(0.0990508 0.000501694 0)
(0.0990111 0.000635224 0)
(0.0989715 0.00078512 0)
(0.0989329 0.000952356 0)
(0.0988964 0.00113786 0)
(0.0988633 0.00134246 0)
(0.0988352 0.00156691 0)
(0.0988139 0.00181177 0)
(0.0988013 0.00207741 0)
(0.0987996 0.00236397 0)
(0.0988113 0.00267125 0)
(0.0988388 0.00299869 0)
(0.0988848 0.00334531 0)
(0.0989521 0.00370965 0)
(0.0990433 0.00408973 0)
(0.0991609 0.004483 0)
(0.0993072 0.00488636 0)
(0.0994841 0.00529619 0)
(0.099693 0.00570835 0)
(0.0999347 0.00611834 0)
(0.100209 0.00652138 0)
(0.100515 0.00691264 0)