/*--------------------------------*- C++ -*----------------------------------*\
| =========                 |                                                 |
| \\      /  F ield         | OpenFOAM: The Open Source CFD Toolbox           |
|  \\    /   O peration     | Version:  2112                                  |
|   \\  /    A nd           | Website:  www.openfoam.com                      |
|    \\/     M anipulation  |                                                 |
\*---------------------------------------------------------------------------*/
FoamFile
{
    version     2.0;
    format      ascii;
    arch        "LSB;label=32;scalar=64";
    class       volVectorField;
    location    "7";
    object      flux;
}
// * * * * * * * * * * * * * * * * * * * * * * * * * * * * * * * * * * * * * //

dimensions      [0 1 -1 1 0 0 0];

internalField   nonuniform List<vector> 
512
(
(0.0213707 -23.1186 0)
(0.061523 -22.9463 0)
(0.0948705 -22.623 0)
(0.11937 -22.1829 0)
(0.135076 -21.6636 0)
(0.143337 -21.0986 0)
(0.145953 -20.5141 0)
(0.144637 -19.929 0)
(0.140759 -19.3557 0)
(0.13531 -18.8021 0)
(0.12894 -18.2728 0)
(0.122039 -17.7703 0)
(0.114813 -17.2963 0)
(0.10734 -16.8517 0)
(0.0996174 -16.4375 0)
(0.0915939 -16.0546 0)
(0.0831904 -15.7045 0)
(0.0743182 -15.3888 0)
(0.0648931 -15.1097 0)
(0.0548489 -14.8694 0)
(0.0441543 -14.6706 0)
(0.032836 -14.5158 0)
(0.0210094 -14.4076 0)
(0.00892137 -14.3476 0)
(-0.00299733 -14.3363 0)
(-0.0140773 -14.372 0)
(-0.0233748 -14.4498 0)
(-0.0297001 -14.5605 0)
(-0.0317774 -14.6895 0)
(-0.0286064 -14.8173 0)
(-0.0200161 -14.9211 0)
(-0.00720817 -14.9796 0)
(0.0647593 -23.1616 0)
(0.18627 -22.9841 0)
(0.286824 -22.6522 0)
(0.360309 -22.2027 0)
(0.407091 -21.6751 0)
(0.431421 -21.1034 0)
(0.438844 -20.5143 0)
(0.43455 -19.926 0)
(0.422672 -19.3508 0)
(0.406162 -18.7961 0)
(0.386953 -18.266 0)
(0.3662 -17.7632 0)
(0.344502 -17.2889 0)
(0.322084 -16.8441 0)
(0.29893 -16.4296 0)
(0.27488 -16.0464 0)
(0.249691 -15.6958 0)
(0.223097 -15.3796 0)
(0.194838 -15.0999 0)
(0.164713 -14.8589 0)
(0.132623 -14.6594 0)
(0.0986396 -14.5041 0)
(0.0630981 -14.3954 0)
(0.0267264 -14.3353 0)
(-0.00919714 -14.3244 0)
(-0.0426732 -14.3613 0)
(-0.0708638 -14.4414 0)
(-0.0901593 -14.5556 0)
(-0.0966423 -14.6896 0)
(-0.0871737 -14.8231 0)
(-0.061104 -14.9322 0)
(-0.0220275 -14.9939 0)
(0.110149 -23.2491 0)
(0.316257 -23.0604 0)
(0.485544 -22.7107 0)
(0.607924 -22.2421 0)
(0.684719 -21.6975 0)
(0.723733 -21.1127 0)
(0.734664 -20.5142 0)
(0.726362 -19.9198 0)
(0.705746 -19.3408 0)
(0.677691 -18.7838 0)
(0.645357 -18.2525 0)
(0.610602 -17.7489 0)
(0.574377 -17.2741 0)
(0.537018 -16.8289 0)
(0.498475 -16.4138 0)
(0.458458 -16.0299 0)
(0.416554 -15.6785 0)
(0.372301 -15.3613 0)
(0.325261 -15.0803 0)
(0.275081 -14.838 0)
(0.221578 -14.6371 0)
(0.164846 -14.4805 0)
(0.105408 -14.3709 0)
(0.0444329 -14.3104 0)
(-0.0159957 -14.3003 0)
(-0.0725784 -14.3395 0)
(-0.120566 -14.4241 0)
(-0.153813 -14.5456 0)
(-0.16549 -14.6895 0)
(-0.149891 -14.8347 0)
(-0.10545 -14.9548 0)
(-0.0380974 -15.0235 0)
(0.159086 -23.3837 0)
(0.455449 -23.1771 0)
(0.695991 -22.799 0)
(0.866936 -22.3005 0)
(0.971793 -21.7299 0)
(1.02307 -21.1254 0)
(1.03529 -20.5131 0)
(1.02126 -19.9097 0)
(0.990682 -19.3252 0)
(0.950296 -18.7651 0)
(0.904372 -18.232 0)
(0.85538 -17.7274 0)
(0.804544 -17.252 0)
(0.75226 -16.806 0)
(0.698401 -16.3902 0)
(0.642524 -16.0053 0)
(0.58402 -15.6526 0)
(0.522221 -15.3337 0)
(0.456488 -15.0509 0)
(0.3863 -14.8065 0)
(0.311362 -14.6036 0)
(0.23175 -14.445 0)
(0.148124 -14.3339 0)
(0.0620251 -14.2728 0)
(-0.0237342 -14.2636 0)
(-0.104613 -14.3062 0)
(-0.173938 -14.3975 0)
(-0.222849 -14.5298 0)
(-0.241152 -14.6889 0)
(-0.219817 -14.8523 0)
(-0.155543 -14.9901 0)
(-0.0563961 -15.0702 0)
(0.213474 -23.57 0)
(0.608597 -23.3365 0)
(0.923838 -22.9175 0)
(1.14247 -22.3769 0)
(1.27226 -21.7709 0)
(1.33217 -21.14 0)
(1.3425 -20.5097 0)
(1.32029 -19.8949 0)
(1.27808 -19.3036 0)
(1.22429 -18.7396 0)
(1.16416 -18.2044 0)
(1.10063 -17.6987 0)
(1.03509 -17.2224 0)
(0.967912 -16.7756 0)
(0.898849 -16.3588 0)
(0.827266 -15.9726 0)
(0.752332 -15.6181 0)
(0.673148 -15.2971 0)
(0.588854 -15.0118 0)
(0.498734 -14.7647 0)
(0.402343 -14.5588 0)
(0.299688 -14.3976 0)
(0.191489 -14.2843 0)
(0.0795621 -14.2222 0)
(-0.0326647 -14.2139 0)
(-0.13951 -14.2605 0)
(-0.232392 -14.3604 0)
(-0.299526 -14.5072 0)
(-0.326721 -14.687 0)
(-0.300476 -14.8762 0)
(-0.21438 -15.0396 0)
(-0.0781343 -15.1366 0)
(0.275817 -23.8147 0)
(0.781715 -23.5424 0)
(1.17584 -23.0663 0)
(1.44022 -22.4696 0)
(1.59021 -21.8181 0)
(1.65366 -21.1545 0)
(1.65783 -20.5025 0)
(1.62433 -19.8743 0)
(1.56838 -19.2751 0)
(1.49989 -18.7068 0)
(1.42482 -18.1694 0)
(1.3464 -17.6625 0)
(1.26605 -17.1854 0)
(1.18405 -16.7378 0)
(1.09995 -16.3197 0)
(1.01287 -15.9318 0)
(0.921733 -15.5752 0)
(0.825382 -15.2516 0)
(0.722709 -14.9631 0)
(0.612769 -14.7124 0)
(0.494925 -14.5029 0)
(0.369047 -14.338 0)
(0.235821 -14.2217 0)
(0.0972094 -14.1579 0)
(-0.0429073 -14.1503 0)
(-0.17787 -14.2014 0)
(-0.297262 -14.3115 0)
(-0.386174 -14.4761 0)
(-0.425651 -14.6827 0)
(-0.396095 -14.9063 0)
(-0.285781 -15.1056 0)
(-0.104911 -15.2272 0)
(0.349593 -24.1274 0)
(0.982778 -23.7993 0)
(1.46028 -23.2453 0)
(1.76656 -22.5759 0)
(1.9298 -21.8684 0)
(1.98998 -21.166 0)
(1.9826 -20.4894 0)
(1.93398 -19.8464 0)
(1.86182 -19.2389 0)
(1.77713 -18.6663 0)
(1.68632 -18.1269 0)
(1.59266 -17.6189 0)
(1.49745 -17.141 0)
(1.40074 -16.6925 0)
(1.30182 -16.2731 0)
(1.19952 -15.8833 0)
(1.09247 -15.5241 0)
(0.979229 -15.1972 0)
(0.858414 -14.9048 0)
(0.728817 -14.6499 0)
(0.589553 -14.4357 0)
(0.440282 -14.2663 0)
(0.28154 -14.146 0)
(0.115272 -14.0796 0)
(-0.0544026 -14.0719 0)
(-0.220091 -14.1275 0)
(-0.369729 -14.2488 0)
(-0.485171 -14.4344 0)
(-0.541844 -14.6741 0)
(-0.511898 -14.9425 0)
(-0.37484 -15.1909 0)
(-0.138957 -15.3481 0)
(0.439866 -24.5221 0)
(1.22276 -24.1126 0)
(1.78753 -23.4531 0)
(2.12866 -22.6918 0)
(2.29515 -21.9174 0)
(2.34319 -21.1712 0)
(2.31767 -20.4678 0)
(2.24953 -19.8096 0)
(2.15839 -19.1941 0)
(2.05593 -18.6176 0)
(1.94855 -18.0764 0)
(1.83933 -17.5677 0)
(1.72925 -17.0893 0)
(1.61801 -16.6399 0)
(1.50455 -16.219 0)
(1.38738 -15.827 0)
(1.26478 -15.4648 0)
(1.135 -15.1341 0)
(0.996353 -14.8372 0)
(0.847321 -14.5771 0)
(0.686725 -14.3573 0)
(0.513926 -14.1822 0)
(0.329183 -14.0567 0)
(0.134226 -13.9864 0)
(-0.066857 -13.9777 0)
(-0.266295 -14.037 0)
(-0.450722 -14.17 0)
(-0.598851 -14.3791 0)
(-0.679702 -14.6583 0)
(-0.654468 -14.9836 0)
(-0.488604 -15.2988 0)
(-0.183535 -15.5082 0)
(0.554346 -25.0193 0)
(1.51728 -24.4885 0)
(2.17069 -23.6864 0)
(2.53442 -22.811 0)
(2.69012 -21.9594 0)
(2.7148 -21.1656 0)
(2.66341 -20.4349 0)
(2.57084 -19.7621 0)
(2.45781 -19.1394 0)
(2.33596 -18.5599 0)
(2.21125 -18.0178 0)
(2.08623 -17.5089 0)
(1.96136 -17.0303 0)
(1.83586 -16.5801 0)
(1.70825 -16.1578 0)
(1.57663 -15.7633 0)
(1.43893 -15.3976 0)
(1.29304 -15.0625 0)
(1.13693 -14.7603 0)
(0.968758 -14.4941 0)
(0.786991 -14.2677 0)
(0.590601 -14.0856 0)
(0.379424 -13.9535 0)
(0.154756 -13.8778 0)
(-0.0796842 -13.8664 0)
(-0.31622 -13.928 0)
(-0.540767 -14.072 0)
(-0.72934 -14.3061 0)
(-0.844093 -14.6308 0)
(-0.832167 -15.027 0)
(-0.637143 -15.4331 0)
(-0.243624 -15.7203 0)
(0.705261 -25.6491 0)
(1.88918 -24.9321 0)
(2.62627 -23.9381 0)
(2.99218 -22.9242 0)
(3.11785 -21.9869 0)
(3.10543 -21.1443 0)
(3.01945 -20.3876 0)
(2.89726 -19.702 0)
(2.75945 -19.074 0)
(2.61672 -18.493 0)
(2.47405 -17.951 0)
(2.33311 -17.4426 0)
(2.19364 -16.9641 0)
(2.05427 -16.5134 0)
(1.91298 -16.0895 0)
(1.76744 -15.6923 0)
(1.61516 -15.3228 0)
(1.45367 -14.9827 0)
(1.28056 -14.6744 0)
(1.09364 -14.4011 0)
(0.890962 -14.1669 0)
(0.671024 -13.9765 0)
(0.433088 -13.836 0)
(0.177776 -13.753 0)
(-0.0919447 -13.7366 0)
(-0.369107 -13.7982 0)
(-0.639781 -13.9513 0)
(-0.87827 -14.2103 0)
(-1.04016 -14.5853 0)
(-1.05559 -15.0678 0)
(-0.835249 -15.5967 0)
(-0.327148 -16.0039 0)
(0.912821 -26.4582 0)
(2.3728 -25.4451 0)
(3.17465 -24.1946 0)
(3.51001 -23.0183 0)
(3.5801 -21.9907 0)
(3.51446 -21.1015 0)
(3.38454 -20.3224 0)
(3.2276 -19.6276 0)
(3.06233 -18.9969 0)
(2.89749 -18.4162 0)
(2.73644 -17.8757 0)
(2.57965 -17.3688 0)
(2.42593 -16.8911 0)
(2.27318 -16.44 0)
(2.11881 -16.0145 0)
(1.95997 -15.6144 0)
(1.79374 -15.2406 0)
(1.61725 -14.8948 0)
(1.42771 -14.5796 0)
(1.22252 -14.2983 0)
(0.999308 -14.0549 0)
(0.756008 -13.8547 0)
(0.491158 -13.7041 0)
(0.204458 -13.6114 0)
(-0.102293 -13.5872 0)
(-0.423575 -13.6453 0)
(-0.746805 -13.8039 0)
(-1.04632 -14.0852 0)
(-1.27283 -14.5126 0)
(-1.33787 -15.0965 0)
(-1.10521 -15.7903 0)
(-0.44723 -16.3889 0)
(1.21179 -27.5205 0)
(3.02095 -26.0174 0)
(3.83965 -24.4327 0)
(4.09414 -23.0753 0)
(4.07628 -21.9599 0)
(3.93956 -21.0311 0)
(3.75639 -20.2363 0)
(3.56003 -19.5371 0)
(3.36512 -18.9073 0)
(3.17731 -18.3295 0)
(2.99778 -17.7921 0)
(2.82544 -17.2877 0)
(2.65801 -16.8113 0)
(2.49254 -16.3602 0)
(2.3258 -15.9332 0)
(2.1544 -15.5299 0)
(1.97495 -15.1513 0)
(1.78416 -14.7992 0)
(1.57883 -14.4763 0)
(1.35599 -14.1858 0)
(1.11275 -13.932 0)
(0.846456 -13.7203 0)
(0.554768 -13.5574 0)
(0.236229 -13.4523 0)
(-0.10894 -13.4168 0)
(-0.477497 -13.467 0)
(-0.859705 -13.6255 0)
(-1.23258 -13.9231 0)
(-1.54583 -14.4002 0)
(-1.69444 -15.0974 0)
(-1.48143 -16.0069 0)
(-0.626471 -16.9231 0)
(1.66435 -28.9586 0)
(3.91671 -26.6102 0)
(4.64571 -24.6139 0)
(4.74637 -23.0718 0)
(4.60219 -21.8826 0)
(4.37628 -20.9273 0)
(4.13155 -20.1263 0)
(3.89211 -19.4293 0)
(3.66614 -18.8047 0)
(3.45509 -18.2326 0)
(3.25735 -17.7002 0)
(3.07003 -17.1995 0)
(2.88964 -16.7253 0)
(2.71226 -16.2745 0)
(2.534 -15.8459 0)
(2.3509 -15.4391 0)
(2.15906 -15.0554 0)
(1.95478 -14.6963 0)
(1.73442 -14.3647 0)
(1.49463 -14.0641 0)
(1.23205 -13.7985 0)
(0.943348 -13.5737 0)
(0.625186 -13.396 0)
(0.27475 -13.2757 0)
(-0.109657 -13.2248 0)
(-0.527932 -13.2614 0)
(-0.974865 -13.412 0)
(-1.43368 -13.716 0)
(-1.85995 -14.2325 0)
(-2.14123 -15.0448 0)
(-2.01808 -16.2216 0)
(-0.905315 -17.6863 0)
(2.38599 -30.9838 0)
(5.1933 -27.1149 0)
(5.60886 -24.6815 0)
(5.45979 -22.98 0)
(5.14852 -21.7467 0)
(4.8177 -20.7849 0)
(4.5054 -19.9903 0)
(4.22082 -19.3033 0)
(3.96344 -18.689 0)
(3.72956 -18.1259 0)
(3.51433 -17.6004 0)
(3.31292 -17.1048 0)
(3.12055 -16.6333 0)
(2.93224 -16.1831 0)
(2.74346 -15.7531 0)
(2.54965 -15.3426 0)
(2.34634 -14.9532 0)
(2.12949 -14.5866 0)
(1.89494 -14.2454 0)
(1.63907 -13.9337 0)
(1.35797 -13.6549 0)
(1.0477 -13.4152 0)
(0.703771 -13.2205 0)
(0.321858 -13.0818 0)
(-0.101819 -13.011 0)
(-0.571126 -13.0275 0)
(-1.08697 -13.1604 0)
(-1.64282 -13.4558 0)
(-2.21024 -13.991 0)
(-2.68896 -14.9012 0)
(-2.80216 -16.3644 0)
(-1.35881 -18.8159 0)
(3.59878 -33.9762 0)
(7.06783 -27.2608 0)
(6.71317 -24.5662 0)
(6.21377 -22.7712 0)
(5.69974 -21.543 0)
(5.2545 -20.6007 0)
(4.87231 -19.8273 0)
(4.54274 -19.1593 0)
(4.25489 -18.5605 0)
(3.99938 -18.0097 0)
(3.76788 -17.4932 0)
(3.55358 -17.004 0)
(3.35048 -16.5361 0)
(3.15238 -16.0867 0)
(2.95424 -15.6555 0)
(2.75083 -15.2408 0)
(2.53707 -14.8454 0)
(2.3087 -14.4704 0)
(2.06087 -14.1187 0)
(1.78989 -13.7949 0)
(1.49127 -13.5013 0)
(1.16056 -13.2455 0)
(0.791932 -13.0307 0)
(0.379484 -12.8707 0)
(-0.082508 -12.7752 0)
(-0.602628 -12.7641 0)
(-1.18902 -12.8679 0)
(-1.84899 -13.1353 0)
(-2.58266 -13.6554 0)
(-3.32795 -14.6191 0)
(-3.97546 -16.2601 0)
(-2.13107 -20.558 0)
(5.74367 -38.6474 0)
(9.89828 -26.4015 0)
(7.85367 -24.226 0)
(6.9714 -22.4206 0)
(6.23377 -21.2678 0)
(5.67553 -20.3742 0)
(5.22608 -19.6381 0)
(4.85423 -18.998 0)
(4.53826 -18.4201 0)
(4.2632 -17.8849 0)
(4.01716 -17.3792 0)
(3.79147 -16.8979 0)
(3.57921 -16.4343 0)
(3.37257 -15.9858 0)
(3.16639 -15.5537 0)
(2.95467 -15.1343 0)
(2.73154 -14.7325 0)
(2.49287 -14.3484 0)
(2.23269 -13.9849 0)
(1.94773 -13.6486 0)
(1.63271 -13.3382 0)
(1.28301 -13.0652 0)
(0.891173 -12.8271 0)
(0.449617 -12.6432 0)
(-0.0485537 -12.5181 0)
(-0.617461 -12.4718 0)
(-1.27255 -12.5341 0)
(-2.0366 -12.7512 0)
(-2.95213 -13.2085 0)
(-3.99131 -14.1672 0)
(-5.77161 -15.4914 0)
(-3.50773 -23.373 0)
)
;

boundaryField
{
    left
    {
        type            calculated;
        value           nonuniform List<vector> 
16
(
(0 -23.1186 0)
(0 -23.1616 0)
(0 -23.2491 0)
(0 -23.3837 0)
(0 -23.57 0)
(0 -23.8147 0)
(0 -24.1274 0)
(0 -24.5221 0)
(0 -25.0193 0)
(0 -25.6491 0)
(0 -26.4582 0)
(0 -27.5205 0)
(0 -28.9586 0)
(0 -30.9838 0)
(0 -33.9762 0)
(0 -38.6474 0)
)
;
    }
    right
    {
        type            calculated;
        value           nonuniform List<vector> 
16
(
(0 -14.9796 0)
(0 -14.9939 0)
(0 -15.0235 0)
(0 -15.0702 0)
(0 -15.1366 0)
(0 -15.2272 0)
(0 -15.3481 0)
(0 -15.5082 0)
(0 -15.7203 0)
(0 -16.0039 0)
(0 -16.3889 0)
(0 -16.9231 0)
(0 -17.6863 0)
(0 -18.8159 0)
(0 -20.558 0)
(0 -23.373 0)
)
;
    }
    interface
    {
        type            calculated;
        value           nonuniform List<vector> 
32
(
(5.74367 -41.5193 0)
(9.89828 -25.6069 0)
(7.85367 -23.9983 0)
(6.9714 -22.2073 0)
(6.23377 -21.1124 0)
(5.67553 -20.2506 0)
(5.22608 -19.5371 0)
(4.85423 -18.9131 0)
(4.53826 -18.347 0)
(4.2632 -17.8205 0)
(4.01716 -17.3206 0)
(3.79147 -16.8436 0)
(3.57921 -16.3824 0)
(3.37257 -15.9342 0)
(3.16639 -15.5018 0)
(2.95467 -15.0798 0)
(2.73154 -14.6748 0)
(2.49287 -14.2861 0)
(2.23269 -13.9162 0)
(1.94773 -13.5736 0)
(1.63271 -13.2544 0)
(1.28301 -12.9727 0)
(0.891173 -12.722 0)
(0.449617 -12.5256 0)
(-0.0485537 -12.3844 0)
(-0.617461 -12.3186 0)
(-1.27255 -12.3571 0)
(-2.0366 -12.5433 0)
(-2.95213 -12.9555 0)
(-3.99131 -13.8974 0)
(-5.77161 -14.8679 0)
(-3.50773 -25.1245 0)
)
;
    }
    bottom
    {
        type            calculated;
        value           nonuniform List<vector> 
32
(
(0.0213707 -23.1079 0)
(0.061523 -22.9369 0)
(0.0948705 -22.6157 0)
(0.11937 -22.1779 0)
(0.135076 -21.6607 0)
(0.143337 -21.0973 0)
(0.145953 -20.514 0)
(0.144637 -19.9297 0)
(0.140759 -19.3569 0)
(0.13531 -18.8036 0)
(0.12894 -18.2745 0)
(0.122039 -17.7721 0)
(0.114813 -17.2982 0)
(0.10734 -16.8536 0)
(0.0996174 -16.4394 0)
(0.0915939 -16.0567 0)
(0.0831904 -15.7067 0)
(0.0743182 -15.3912 0)
(0.0648931 -15.1121 0)
(0.0548489 -14.872 0)
(0.0441543 -14.6733 0)
(0.032836 -14.5188 0)
(0.0210094 -14.4107 0)
(0.00892137 -14.3507 0)
(-0.00299733 -14.3393 0)
(-0.0140773 -14.3747 0)
(-0.0233748 -14.4519 0)
(-0.0297001 -14.5617 0)
(-0.0317774 -14.6895 0)
(-0.0286064 -14.8159 0)
(-0.0200161 -14.9184 0)
(-0.00720817 -14.976 0)
)
;
    }
    defaultFaces
    {
        type            empty;
    }
}


// ************************************************************************* //
