/*--------------------------------*- C++ -*----------------------------------*\
| =========                 |                                                 |
| \\      /  F ield         | OpenFOAM: The Open Source CFD Toolbox           |
|  \\    /   O peration     | Version:  2112                                  |
|   \\  /    A nd           | Website:  www.openfoam.com                      |
|    \\/     M anipulation  |                                                 |
\*---------------------------------------------------------------------------*/
FoamFile
{
    version     2.0;
    format      ascii;
    arch        "LSB;label=32;scalar=64";
    class       volScalarField;
    location    "7";
    object      gradTx;
}
// * * * * * * * * * * * * * * * * * * * * * * * * * * * * * * * * * * * * * //

dimensions      [0 -1 0 1 0 0 0];

internalField   nonuniform List<scalar> 
512
(
0.0213707
0.061523
0.0948705
0.11937
0.135076
0.143337
0.145953
0.144637
0.140759
0.13531
0.12894
0.122039
0.114813
0.10734
0.0996174
0.0915939
0.0831904
0.0743182
0.0648931
0.0548489
0.0441543
0.032836
0.0210094
0.00892137
-0.00299733
-0.0140773
-0.0233748
-0.0297001
-0.0317774
-0.0286064
-0.0200161
-0.00720817
0.0647593
0.18627
0.286824
0.360309
0.407091
0.431421
0.438844
0.43455
0.422672
0.406162
0.386953
0.3662
0.344502
0.322084
0.29893
0.27488
0.249691
0.223097
0.194838
0.164713
0.132623
0.0986396
0.0630981
0.0267264
-0.00919714
-0.0426732
-0.0708638
-0.0901593
-0.0966423
-0.0871737
-0.061104
-0.0220275
0.110149
0.316257
0.485544
0.607924
0.684719
0.723733
0.734664
0.726362
0.705746
0.677691
0.645357
0.610602
0.574377
0.537018
0.498475
0.458458
0.416554
0.372301
0.325261
0.275081
0.221578
0.164846
0.105408
0.0444329
-0.0159957
-0.0725784
-0.120566
-0.153813
-0.16549
-0.149891
-0.10545
-0.0380974
0.159086
0.455449
0.695991
0.866936
0.971793
1.02307
1.03529
1.02126
0.990682
0.950296
0.904372
0.85538
0.804544
0.75226
0.698401
0.642524
0.58402
0.522221
0.456488
0.3863
0.311362
0.23175
0.148124
0.0620251
-0.0237342
-0.104613
-0.173938
-0.222849
-0.241152
-0.219817
-0.155543
-0.0563961
0.213474
0.608597
0.923838
1.14247
1.27226
1.33217
1.3425
1.32029
1.27808
1.22429
1.16416
1.10063
1.03509
0.967912
0.898849
0.827266
0.752332
0.673148
0.588854
0.498734
0.402343
0.299688
0.191489
0.0795621
-0.0326647
-0.13951
-0.232392
-0.299526
-0.326721
-0.300476
-0.21438
-0.0781343
0.275817
0.781715
1.17584
1.44022
1.59021
1.65366
1.65783
1.62433
1.56838
1.49989
1.42482
1.3464
1.26605
1.18405
1.09995
1.01287
0.921733
0.825382
0.722709
0.612769
0.494925
0.369047
0.235821
0.0972094
-0.0429073
-0.17787
-0.297262
-0.386174
-0.425651
-0.396095
-0.285781
-0.104911
0.349593
0.982778
1.46028
1.76656
1.9298
1.98998
1.9826
1.93398
1.86182
1.77713
1.68632
1.59266
1.49745
1.40074
1.30182
1.19952
1.09247
0.979229
0.858414
0.728817
0.589553
0.440282
0.28154
0.115272
-0.0544026
-0.220091
-0.369729
-0.485171
-0.541844
-0.511898
-0.37484
-0.138957
0.439866
1.22276
1.78753
2.12866
2.29515
2.34319
2.31767
2.24953
2.15839
2.05593
1.94855
1.83933
1.72925
1.61801
1.50455
1.38738
1.26478
1.135
0.996353
0.847321
0.686725
0.513926
0.329183
0.134226
-0.066857
-0.266295
-0.450722
-0.598851
-0.679702
-0.654468
-0.488604
-0.183535
0.554346
1.51728
2.17069
2.53442
2.69012
2.7148
2.66341
2.57084
2.45781
2.33596
2.21125
2.08623
1.96136
1.83586
1.70825
1.57663
1.43893
1.29304
1.13693
0.968758
0.786991
0.590601
0.379424
0.154756
-0.0796842
-0.31622
-0.540767
-0.72934
-0.844093
-0.832167
-0.637143
-0.243624
0.705261
1.88918
2.62627
2.99218
3.11785
3.10543
3.01945
2.89726
2.75945
2.61672
2.47405
2.33311
2.19364
2.05427
1.91298
1.76744
1.61516
1.45367
1.28056
1.09364
0.890962
0.671024
0.433088
0.177776
-0.0919447
-0.369107
-0.639781
-0.87827
-1.04016
-1.05559
-0.835249
-0.327148
0.912821
2.3728
3.17465
3.51001
3.5801
3.51446
3.38454
3.2276
3.06233
2.89749
2.73644
2.57965
2.42593
2.27318
2.11881
1.95997
1.79374
1.61725
1.42771
1.22252
0.999308
0.756008
0.491158
0.204458
-0.102293
-0.423575
-0.746805
-1.04632
-1.27283
-1.33787
-1.10521
-0.44723
1.21179
3.02095
3.83965
4.09414
4.07628
3.93956
3.75639
3.56003
3.36512
3.17731
2.99778
2.82544
2.65801
2.49254
2.3258
2.1544
1.97495
1.78416
1.57883
1.35599
1.11275
0.846456
0.554768
0.236229
-0.10894
-0.477497
-0.859705
-1.23258
-1.54583
-1.69444
-1.48143
-0.626471
1.66435
3.91671
4.64571
4.74637
4.60219
4.37628
4.13155
3.89211
3.66614
3.45509
3.25735
3.07003
2.88964
2.71226
2.534
2.3509
2.15906
1.95478
1.73442
1.49463
1.23205
0.943348
0.625186
0.27475
-0.109657
-0.527932
-0.974865
-1.43368
-1.85995
-2.14123
-2.01808
-0.905315
2.38599
5.1933
5.60886
5.45979
5.14852
4.8177
4.5054
4.22082
3.96344
3.72956
3.51433
3.31292
3.12055
2.93224
2.74346
2.54965
2.34634
2.12949
1.89494
1.63907
1.35797
1.0477
0.703771
0.321858
-0.101819
-0.571126
-1.08697
-1.64282
-2.21024
-2.68896
-2.80216
-1.35881
3.59878
7.06783
6.71317
6.21377
5.69974
5.2545
4.87231
4.54274
4.25489
3.99938
3.76788
3.55358
3.35048
3.15238
2.95424
2.75083
2.53707
2.3087
2.06087
1.78989
1.49127
1.16056
0.791932
0.379484
-0.082508
-0.602628
-1.18902
-1.84899
-2.58266
-3.32795
-3.97546
-2.13107
5.74367
9.89828
7.85367
6.9714
6.23377
5.67553
5.22608
4.85423
4.53826
4.2632
4.01716
3.79147
3.57921
3.37257
3.16639
2.95467
2.73154
2.49287
2.23269
1.94773
1.63271
1.28301
0.891173
0.449617
-0.0485537
-0.617461
-1.27255
-2.0366
-2.95213
-3.99131
-5.77161
-3.50773
)
;

boundaryField
{
    left
    {
        type            calculated;
        value           uniform 0;
    }
    right
    {
        type            calculated;
        value           uniform 0;
    }
    interface
    {
        type            calculated;
        value           nonuniform List<scalar> 
32
(
5.74367
9.89828
7.85367
6.9714
6.23377
5.67553
5.22608
4.85423
4.53826
4.2632
4.01716
3.79147
3.57921
3.37257
3.16639
2.95467
2.73154
2.49287
2.23269
1.94773
1.63271
1.28301
0.891173
0.449617
-0.0485537
-0.617461
-1.27255
-2.0366
-2.95213
-3.99131
-5.77161
-3.50773
)
;
    }
    bottom
    {
        type            calculated;
        value           nonuniform List<scalar> 
32
(
0.0213707
0.061523
0.0948705
0.11937
0.135076
0.143337
0.145953
0.144637
0.140759
0.13531
0.12894
0.122039
0.114813
0.10734
0.0996174
0.0915939
0.0831904
0.0743182
0.0648931
0.0548489
0.0441543
0.032836
0.0210094
0.00892137
-0.00299733
-0.0140773
-0.0233748
-0.0297001
-0.0317774
-0.0286064
-0.0200161
-0.00720817
)
;
    }
    defaultFaces
    {
        type            empty;
    }
}


// ************************************************************************* //
