/*--------------------------------*- C++ -*----------------------------------*\
| =========                 |                                                 |
| \\      /  F ield         | OpenFOAM: The Open Source CFD Toolbox           |
|  \\    /   O peration     | Version:  2112                                  |
|   \\  /    A nd           | Website:  www.openfoam.com                      |
|    \\/     M anipulation  |                                                 |
\*---------------------------------------------------------------------------*/
FoamFile
{
    version     2.0;
    format      ascii;
    arch        "LSB;label=32;scalar=64";
    class       volScalarField;
    location    "7";
    object      gradTy;
}
// * * * * * * * * * * * * * * * * * * * * * * * * * * * * * * * * * * * * * //

dimensions      [0 -1 0 1 0 0 0];

internalField   nonuniform List<scalar> 
512
(
-23.1186
-22.9463
-22.623
-22.1829
-21.6636
-21.0986
-20.5141
-19.929
-19.3557
-18.8021
-18.2728
-17.7703
-17.2963
-16.8517
-16.4375
-16.0546
-15.7045
-15.3888
-15.1097
-14.8694
-14.6706
-14.5158
-14.4076
-14.3476
-14.3363
-14.372
-14.4498
-14.5605
-14.6895
-14.8173
-14.9211
-14.9796
-23.1616
-22.9841
-22.6522
-22.2027
-21.6751
-21.1034
-20.5143
-19.926
-19.3508
-18.7961
-18.266
-17.7632
-17.2889
-16.8441
-16.4296
-16.0464
-15.6958
-15.3796
-15.0999
-14.8589
-14.6594
-14.5041
-14.3954
-14.3353
-14.3244
-14.3613
-14.4414
-14.5556
-14.6896
-14.8231
-14.9322
-14.9939
-23.2491
-23.0604
-22.7107
-22.2421
-21.6975
-21.1127
-20.5142
-19.9198
-19.3408
-18.7838
-18.2525
-17.7489
-17.2741
-16.8289
-16.4138
-16.0299
-15.6785
-15.3613
-15.0803
-14.838
-14.6371
-14.4805
-14.3709
-14.3104
-14.3003
-14.3395
-14.4241
-14.5456
-14.6895
-14.8347
-14.9548
-15.0235
-23.3837
-23.1771
-22.799
-22.3005
-21.7299
-21.1254
-20.5131
-19.9097
-19.3252
-18.7651
-18.232
-17.7274
-17.252
-16.806
-16.3902
-16.0053
-15.6526
-15.3337
-15.0509
-14.8065
-14.6036
-14.445
-14.3339
-14.2728
-14.2636
-14.3062
-14.3975
-14.5298
-14.6889
-14.8523
-14.9901
-15.0702
-23.57
-23.3365
-22.9175
-22.3769
-21.7709
-21.14
-20.5097
-19.8949
-19.3036
-18.7396
-18.2044
-17.6987
-17.2224
-16.7756
-16.3588
-15.9726
-15.6181
-15.2971
-15.0118
-14.7647
-14.5588
-14.3976
-14.2843
-14.2222
-14.2139
-14.2605
-14.3604
-14.5072
-14.687
-14.8762
-15.0396
-15.1366
-23.8147
-23.5424
-23.0663
-22.4696
-21.8181
-21.1545
-20.5025
-19.8743
-19.2751
-18.7068
-18.1694
-17.6625
-17.1854
-16.7378
-16.3197
-15.9318
-15.5752
-15.2516
-14.9631
-14.7124
-14.5029
-14.338
-14.2217
-14.1579
-14.1503
-14.2014
-14.3115
-14.4761
-14.6827
-14.9063
-15.1056
-15.2272
-24.1274
-23.7993
-23.2453
-22.5759
-21.8684
-21.166
-20.4894
-19.8464
-19.2389
-18.6663
-18.1269
-17.6189
-17.141
-16.6925
-16.2731
-15.8833
-15.5241
-15.1972
-14.9048
-14.6499
-14.4357
-14.2663
-14.146
-14.0796
-14.0719
-14.1275
-14.2488
-14.4344
-14.6741
-14.9425
-15.1909
-15.3481
-24.5221
-24.1126
-23.4531
-22.6918
-21.9174
-21.1712
-20.4678
-19.8096
-19.1941
-18.6176
-18.0764
-17.5677
-17.0893
-16.6399
-16.219
-15.827
-15.4648
-15.1341
-14.8372
-14.5771
-14.3573
-14.1822
-14.0567
-13.9864
-13.9777
-14.037
-14.17
-14.3791
-14.6583
-14.9836
-15.2988
-15.5082
-25.0193
-24.4885
-23.6864
-22.811
-21.9594
-21.1656
-20.4349
-19.7621
-19.1394
-18.5599
-18.0178
-17.5089
-17.0303
-16.5801
-16.1578
-15.7633
-15.3976
-15.0625
-14.7603
-14.4941
-14.2677
-14.0856
-13.9535
-13.8778
-13.8664
-13.928
-14.072
-14.3061
-14.6308
-15.027
-15.4331
-15.7203
-25.6491
-24.9321
-23.9381
-22.9242
-21.9869
-21.1443
-20.3876
-19.702
-19.074
-18.493
-17.951
-17.4426
-16.9641
-16.5134
-16.0895
-15.6923
-15.3228
-14.9827
-14.6744
-14.4011
-14.1669
-13.9765
-13.836
-13.753
-13.7366
-13.7982
-13.9513
-14.2103
-14.5853
-15.0678
-15.5967
-16.0039
-26.4582
-25.4451
-24.1946
-23.0183
-21.9907
-21.1015
-20.3224
-19.6276
-18.9969
-18.4162
-17.8757
-17.3688
-16.8911
-16.44
-16.0145
-15.6144
-15.2406
-14.8948
-14.5796
-14.2983
-14.0549
-13.8547
-13.7041
-13.6114
-13.5872
-13.6453
-13.8039
-14.0852
-14.5126
-15.0965
-15.7903
-16.3889
-27.5205
-26.0174
-24.4327
-23.0753
-21.9599
-21.0311
-20.2363
-19.5371
-18.9073
-18.3295
-17.7921
-17.2877
-16.8113
-16.3602
-15.9332
-15.5299
-15.1513
-14.7992
-14.4763
-14.1858
-13.932
-13.7203
-13.5574
-13.4523
-13.4168
-13.467
-13.6255
-13.9231
-14.4002
-15.0974
-16.0069
-16.9231
-28.9586
-26.6102
-24.6139
-23.0718
-21.8826
-20.9273
-20.1263
-19.4293
-18.8047
-18.2326
-17.7002
-17.1995
-16.7253
-16.2745
-15.8459
-15.4391
-15.0554
-14.6963
-14.3647
-14.0641
-13.7985
-13.5737
-13.396
-13.2757
-13.2248
-13.2614
-13.412
-13.716
-14.2325
-15.0448
-16.2216
-17.6863
-30.9838
-27.1149
-24.6815
-22.98
-21.7467
-20.7849
-19.9903
-19.3033
-18.689
-18.1259
-17.6004
-17.1048
-16.6333
-16.1831
-15.7531
-15.3426
-14.9532
-14.5866
-14.2454
-13.9337
-13.6549
-13.4152
-13.2205
-13.0818
-13.011
-13.0275
-13.1604
-13.4558
-13.991
-14.9012
-16.3644
-18.8159
-33.9762
-27.2608
-24.5662
-22.7712
-21.543
-20.6007
-19.8273
-19.1593
-18.5605
-18.0097
-17.4932
-17.004
-16.5361
-16.0867
-15.6555
-15.2408
-14.8454
-14.4704
-14.1187
-13.7949
-13.5013
-13.2455
-13.0307
-12.8707
-12.7752
-12.7641
-12.8679
-13.1353
-13.6554
-14.6191
-16.2601
-20.558
-38.6474
-26.4015
-24.226
-22.4206
-21.2678
-20.3742
-19.6381
-18.998
-18.4201
-17.8849
-17.3792
-16.8979
-16.4343
-15.9858
-15.5537
-15.1343
-14.7325
-14.3484
-13.9849
-13.6486
-13.3382
-13.0652
-12.8271
-12.6432
-12.5181
-12.4718
-12.5341
-12.7512
-13.2085
-14.1672
-15.4914
-23.373
)
;

boundaryField
{
    left
    {
        type            calculated;
        value           nonuniform List<scalar> 
16
(
-23.1186
-23.1616
-23.2491
-23.3837
-23.57
-23.8147
-24.1274
-24.5221
-25.0193
-25.6491
-26.4582
-27.5205
-28.9586
-30.9838
-33.9762
-38.6474
)
;
    }
    right
    {
        type            calculated;
        value           nonuniform List<scalar> 
16
(
-14.9796
-14.9939
-15.0235
-15.0702
-15.1366
-15.2272
-15.3481
-15.5082
-15.7203
-16.0039
-16.3889
-16.9231
-17.6863
-18.8159
-20.558
-23.373
)
;
    }
    interface
    {
        type            calculated;
        value           nonuniform List<scalar> 
32
(
-41.5193
-25.6069
-23.9983
-22.2073
-21.1124
-20.2506
-19.5371
-18.9131
-18.347
-17.8205
-17.3206
-16.8436
-16.3824
-15.9342
-15.5018
-15.0798
-14.6748
-14.2861
-13.9162
-13.5736
-13.2544
-12.9727
-12.722
-12.5256
-12.3844
-12.3186
-12.3571
-12.5433
-12.9555
-13.8974
-14.8679
-25.1245
)
;
    }
    bottom
    {
        type            calculated;
        value           nonuniform List<scalar> 
32
(
-23.1079
-22.9369
-22.6157
-22.1779
-21.6607
-21.0973
-20.514
-19.9297
-19.3569
-18.8036
-18.2745
-17.7721
-17.2982
-16.8536
-16.4394
-16.0567
-15.7067
-15.3912
-15.1121
-14.872
-14.6733
-14.5188
-14.4107
-14.3507
-14.3393
-14.3747
-14.4519
-14.5617
-14.6895
-14.8159
-14.9184
-14.976
)
;
    }
    defaultFaces
    {
        type            empty;
    }
}


// ************************************************************************* //
