/*--------------------------------*- C++ -*----------------------------------*\
| =========                 |                                                 |
| \\      /  F ield         | OpenFOAM: The Open Source CFD Toolbox           |
|  \\    /   O peration     | Version:  2112                                  |
|   \\  /    A nd           | Website:  www.openfoam.com                      |
|    \\/     M anipulation  |                                                 |
\*---------------------------------------------------------------------------*/
FoamFile
{
    version     2.0;
    format      ascii;
    arch        "LSB;label=32;scalar=64";
    class       volScalarField;
    location    "7";
    object      T;
}
// * * * * * * * * * * * * * * * * * * * * * * * * * * * * * * * * * * * * * //

dimensions      [0 0 0 1 0 0 0];

internalField   nonuniform List<scalar> 
512
(
309.819
309.821
309.823
309.827
309.831
309.835
309.84
309.844
309.849
309.853
309.857
309.861
309.865
309.868
309.872
309.875
309.877
309.88
309.882
309.884
309.885
309.887
309.887
309.888
309.888
309.888
309.887
309.886
309.885
309.884
309.883
309.883
309.458
309.462
309.47
309.48
309.492
309.505
309.519
309.533
309.546
309.559
309.572
309.584
309.595
309.605
309.615
309.624
309.632
309.639
309.646
309.652
309.656
309.66
309.662
309.664
309.664
309.663
309.661
309.659
309.656
309.653
309.65
309.649
309.096
309.103
309.115
309.133
309.153
309.176
309.199
309.222
309.244
309.266
309.286
309.306
309.325
309.342
309.358
309.373
309.387
309.399
309.41
309.419
309.427
309.433
309.438
309.44
309.44
309.439
309.436
309.431
309.426
309.421
309.417
309.414
308.732
308.741
308.76
308.785
308.814
308.846
308.878
308.91
308.942
308.972
309.001
309.029
309.055
309.079
309.102
309.123
309.142
309.159
309.175
309.188
309.199
309.207
309.213
309.217
309.217
309.215
309.211
309.204
309.197
309.189
309.183
309.179
308.365
308.378
308.403
308.436
308.474
308.516
308.558
308.599
308.64
308.679
308.717
308.752
308.785
308.817
308.846
308.873
308.898
308.92
308.94
308.957
308.971
308.982
308.99
308.994
308.995
308.992
308.986
308.977
308.967
308.957
308.948
308.943
307.995
308.012
308.044
308.086
308.134
308.185
308.237
308.289
308.339
308.387
308.432
308.476
308.517
308.555
308.591
308.624
308.654
308.681
308.706
308.726
308.744
308.757
308.767
308.772
308.773
308.769
308.762
308.751
308.738
308.724
308.713
308.706
307.621
307.643
307.682
307.734
307.793
307.854
307.917
307.978
308.038
308.095
308.149
308.2
308.248
308.294
308.336
308.375
308.411
308.443
308.472
308.497
308.518
308.534
308.545
308.551
308.552
308.548
308.539
308.525
308.508
308.491
308.476
308.468
307.241
307.268
307.317
307.38
307.45
307.524
307.597
307.669
307.738
307.803
307.866
307.925
307.981
308.033
308.082
308.127
308.169
308.206
308.24
308.269
308.293
308.312
308.325
308.332
308.333
308.328
308.317
308.3
308.279
308.257
308.238
308.227
306.854
306.889
306.949
307.025
307.108
307.193
307.277
307.359
307.438
307.513
307.584
307.651
307.714
307.774
307.829
307.88
307.928
307.97
308.008
308.041
308.069
308.091
308.106
308.114
308.116
308.109
308.096
308.076
308.05
308.023
307.998
307.983
306.459
306.503
306.577
306.667
306.764
306.862
306.958
307.051
307.139
307.223
307.303
307.378
307.449
307.515
307.577
307.635
307.688
307.736
307.778
307.816
307.847
307.871
307.889
307.898
307.9
307.893
307.877
307.853
307.822
307.788
307.756
307.735
306.053
306.11
306.201
306.308
306.421
306.532
306.64
306.744
306.842
306.935
307.023
307.106
307.184
307.258
307.326
307.39
307.449
307.502
307.55
307.591
307.626
307.654
307.674
307.685
307.686
307.678
307.66
307.631
307.594
307.552
307.511
307.483
305.632
305.708
305.821
305.948
306.077
306.203
306.323
306.438
306.546
306.648
306.744
306.835
306.921
307.001
307.077
307.147
307.211
307.27
307.323
307.369
307.408
307.438
307.46
307.473
307.475
307.466
307.445
307.412
307.368
307.316
307.262
307.223
305.193
305.297
305.438
305.587
305.734
305.875
306.008
306.133
306.251
306.362
306.467
306.566
306.659
306.746
306.828
306.905
306.975
307.04
307.097
307.148
307.191
307.225
307.25
307.264
307.267
307.257
307.234
307.196
307.144
307.08
307.011
306.954
304.727
304.876
305.052
305.227
305.393
305.549
305.694
305.83
305.958
306.078
306.191
306.298
306.398
306.493
306.582
306.664
306.741
306.811
306.874
306.929
306.976
307.014
307.042
307.058
307.062
307.052
307.026
306.984
306.924
306.846
306.755
306.671
304.225
304.45
304.666
304.869
305.055
305.225
305.383
305.53
305.667
305.796
305.917
306.031
306.139
306.241
306.336
306.425
306.508
306.584
306.652
306.713
306.764
306.806
306.837
306.855
306.86
306.85
306.823
306.776
306.707
306.614
306.499
306.366
303.666
304.025
304.284
304.515
304.72
304.905
305.075
305.232
305.378
305.515
305.645
305.766
305.882
305.99
306.092
306.188
306.277
306.359
306.433
306.498
306.554
306.6
306.635
306.656
306.663
306.653
306.624
306.573
306.497
306.389
306.247
306.028
)
;

boundaryField
{
    left
    {
        type            zeroGradient;
    }
    right
    {
        type            zeroGradient;
    }
    interface
    {
        type            fixedValue;
        value           nonuniform List<scalar> 
32
(
303.341
303.825
304.097
304.342
304.555
304.747
304.922
305.084
305.235
305.376
305.509
305.635
305.754
305.866
305.971
306.07
306.162
306.247
306.324
306.392
306.451
306.499
306.535
306.558
306.566
306.557
306.528
306.475
306.396
306.28
306.131
305.832
)
;
    }
    bottom
    {
        type            fixedValue;
        value           uniform 310;
    }
    defaultFaces
    {
        type            empty;
    }
}


// ************************************************************************* //
