/*--------------------------------*- C++ -*----------------------------------*\
| =========                 |                                                 |
| \\      /  F ield         | OpenFOAM: The Open Source CFD Toolbox           |
|  \\    /   O peration     | Version:  2112                                  |
|   \\  /    A nd           | Website:  www.openfoam.com                      |
|    \\/     M anipulation  |                                                 |
\*---------------------------------------------------------------------------*/
FoamFile
{
    version     2.0;
    format      ascii;
    arch        "LSB;label=32;scalar=64";
    class       volScalarField;
    location    "0.6";
    object      p;
}
// * * * * * * * * * * * * * * * * * * * * * * * * * * * * * * * * * * * * * //

dimensions      [1 -1 -2 0 0 0 0];

internalField   nonuniform List<scalar> 
12013
(
103499.989756
103499.989755
103499.989754
103499.989752
103499.989749
103499.989745
103499.989741
103499.989736
103499.98973
103499.989724
103499.989717
103499.989709
103499.989701
103499.989692
103499.989682
103499.989671
103499.98966
103499.989647
103499.989634
103499.98962
103499.989606
103499.98959
103499.989574
103499.989556
103499.989538
103499.989519
103499.989499
103499.989478
103499.989456
103499.989433
103499.989409
103499.989384
103499.989359
103499.989332
103499.989304
103499.989276
103499.989246
103499.989216
103499.989185
103499.989153
103499.98912
103499.989087
103499.989053
103499.989018
103499.988982
103499.988946
103499.98891
103499.988873
103499.988836
103499.988799
103499.988761
103499.988724
103499.988687
103499.988649
103499.988613
103499.988576
103499.988541
103499.988506
103499.988473
103499.988441
103499.98841
103499.988382
103499.988355
103499.988332
103499.988312
103499.988295
103499.988283
103499.988277
103499.988277
103499.988285
103499.988302
103499.988331
103499.988375
103499.988437
103499.988523
103499.98864
103499.988801
103499.989018
103499.989323
103499.989801
103499.990539
103499.966129
103499.966128
103499.966127
103499.966124
103499.966121
103499.966118
103499.966114
103499.966109
103499.966103
103499.966097
103499.96609
103499.966082
103499.966074
103499.966065
103499.966055
103499.966044
103499.966033
103499.96602
103499.966007
103499.965994
103499.965979
103499.965964
103499.965947
103499.96593
103499.965912
103499.965893
103499.965873
103499.965852
103499.965831
103499.965808
103499.965784
103499.96576
103499.965734
103499.965708
103499.965681
103499.965653
103499.965624
103499.965594
103499.965563
103499.965532
103499.965499
103499.965466
103499.965433
103499.965399
103499.965364
103499.965329
103499.965293
103499.965257
103499.965221
103499.965185
103499.965148
103499.965112
103499.965076
103499.96504
103499.965004
103499.964969
103499.964935
103499.964901
103499.964869
103499.964839
103499.964809
103499.964782
103499.964758
103499.964736
103499.964717
103499.964702
103499.964691
103499.964686
103499.964687
103499.964696
103499.964714
103499.964742
103499.964784
103499.964842
103499.96492
103499.965023
103499.965156
103499.965323
103499.96553
103499.965804
103499.966122
103499.940847
103499.940846
103499.940844
103499.940842
103499.940839
103499.940836
103499.940832
103499.940827
103499.940821
103499.940815
103499.940808
103499.9408
103499.940792
103499.940783
103499.940773
103499.940762
103499.940751
103499.940739
103499.940726
103499.940712
103499.940698
103499.940682
103499.940666
103499.940649
103499.940631
103499.940612
103499.940592
103499.940572
103499.94055
103499.940528
103499.940505
103499.94048
103499.940455
103499.940429
103499.940402
103499.940375
103499.940346
103499.940317
103499.940287
103499.940256
103499.940224
103499.940192
103499.940159
103499.940126
103499.940092
103499.940057
103499.940023
103499.939988
103499.939952
103499.939917
103499.939881
103499.939846
103499.939811
103499.939776
103499.939742
103499.939708
103499.939675
103499.939643
103499.939612
103499.939583
103499.939555
103499.939529
103499.939506
103499.939485
103499.939467
103499.939453
103499.939444
103499.939439
103499.93944
103499.939448
103499.939464
103499.939489
103499.939525
103499.939573
103499.939636
103499.939713
103499.939806
103499.939907
103499.940003
103499.940067
103499.940029
103499.913794
103499.913793
103499.913791
103499.913789
103499.913786
103499.913783
103499.913779
103499.913774
103499.913768
103499.913762
103499.913755
103499.913747
103499.913739
103499.91373
103499.91372
103499.913709
103499.913698
103499.913686
103499.913673
103499.91366
103499.913645
103499.91363
103499.913614
103499.913597
103499.913579
103499.913561
103499.913541
103499.913521
103499.9135
103499.913477
103499.913454
103499.913431
103499.913406
103499.91338
103499.913354
103499.913327
103499.913298
103499.91327
103499.91324
103499.91321
103499.913179
103499.913147
103499.913115
103499.913083
103499.913049
103499.913016
103499.912982
103499.912948
103499.912914
103499.912879
103499.912845
103499.912811
103499.912777
103499.912743
103499.91271
103499.912677
103499.912646
103499.912615
103499.912585
103499.912557
103499.912531
103499.912506
103499.912484
103499.912464
103499.912447
103499.912433
103499.912424
103499.912419
103499.912418
103499.912424
103499.912436
103499.912455
103499.912482
103499.912517
103499.91256
103499.912608
103499.912658
103499.9127
103499.912715
103499.912674
103499.912529
103499.884846
103499.884845
103499.884843
103499.884841
103499.884838
103499.884835
103499.884831
103499.884826
103499.88482
103499.884814
103499.884807
103499.884799
103499.884791
103499.884782
103499.884772
103499.884762
103499.884751
103499.884739
103499.884726
103499.884713
103499.884698
103499.884683
103499.884667
103499.884651
103499.884633
103499.884615
103499.884595
103499.884575
103499.884554
103499.884532
103499.88451
103499.884486
103499.884462
103499.884437
103499.884411
103499.884384
103499.884357
103499.884328
103499.884299
103499.88427
103499.884239
103499.884209
103499.884177
103499.884146
103499.884113
103499.884081
103499.884048
103499.884015
103499.883981
103499.883948
103499.883915
103499.883882
103499.883849
103499.883816
103499.883785
103499.883753
103499.883723
103499.883693
103499.883665
103499.883638
103499.883612
103499.883589
103499.883567
103499.883548
103499.883531
103499.883517
103499.883507
103499.883501
103499.883498
103499.8835
103499.883507
103499.883518
103499.883534
103499.883554
103499.883576
103499.883596
103499.883609
103499.883605
103499.883571
103499.883485
103499.883324
103499.85387
103499.85387
103499.853868
103499.853866
103499.853863
103499.853859
103499.853855
103499.85385
103499.853845
103499.853839
103499.853832
103499.853824
103499.853816
103499.853807
103499.853797
103499.853787
103499.853776
103499.853764
103499.853751
103499.853738
103499.853724
103499.853709
103499.853693
103499.853677
103499.853659
103499.853641
103499.853622
103499.853602
103499.853582
103499.85356
103499.853538
103499.853515
103499.853491
103499.853466
103499.853441
103499.853415
103499.853388
103499.85336
103499.853332
103499.853303
103499.853273
103499.853243
103499.853213
103499.853182
103499.853151
103499.853119
103499.853087
103499.853055
103499.853023
103499.852991
103499.852958
103499.852927
103499.852895
103499.852864
103499.852833
103499.852803
103499.852773
103499.852745
103499.852718
103499.852692
103499.852667
103499.852644
103499.852623
103499.852604
103499.852587
103499.852573
103499.852561
103499.852553
103499.852547
103499.852544
103499.852544
103499.852547
103499.852551
103499.852556
103499.852558
103499.852554
103499.852539
103499.852505
103499.852442
103499.852339
103499.852186
103499.820725
103499.820724
103499.820723
103499.820721
103499.820718
103499.820714
103499.82071
103499.820705
103499.8207
103499.820694
103499.820687
103499.820679
103499.820671
103499.820662
103499.820653
103499.820642
103499.820631
103499.82062
103499.820607
103499.820594
103499.82058
103499.820565
103499.82055
103499.820533
103499.820516
103499.820498
103499.82048
103499.82046
103499.82044
103499.820419
103499.820397
103499.820374
103499.820351
103499.820327
103499.820302
103499.820276
103499.82025
103499.820223
103499.820195
103499.820167
103499.820139
103499.820109
103499.82008
103499.82005
103499.820019
103499.819989
103499.819958
103499.819927
103499.819896
103499.819865
103499.819834
103499.819803
103499.819773
103499.819743
103499.819713
103499.819684
103499.819656
103499.819628
103499.819602
103499.819577
103499.819553
103499.819531
103499.81951
103499.81949
103499.819473
103499.819458
103499.819444
103499.819433
103499.819423
103499.819415
103499.819408
103499.819402
103499.819395
103499.819386
103499.819371
103499.819349
103499.819314
103499.819261
103499.819185
103499.81908
103499.818941
103499.785258
103499.785258
103499.785256
103499.785254
103499.785251
103499.785248
103499.785243
103499.785239
103499.785233
103499.785227
103499.78522
103499.785213
103499.785205
103499.785196
103499.785186
103499.785176
103499.785165
103499.785154
103499.785141
103499.785128
103499.785115
103499.7851
103499.785085
103499.785069
103499.785052
103499.785034
103499.785016
103499.784997
103499.784977
103499.784956
103499.784935
103499.784913
103499.78489
103499.784866
103499.784842
103499.784817
103499.784791
103499.784765
103499.784738
103499.784711
103499.784683
103499.784655
103499.784626
103499.784597
103499.784568
103499.784538
103499.784508
103499.784479
103499.784449
103499.784419
103499.784389
103499.78436
103499.78433
103499.784301
103499.784273
103499.784245
103499.784218
103499.784192
103499.784166
103499.784142
103499.784118
103499.784096
103499.784075
103499.784055
103499.784037
103499.78402
103499.784004
103499.78399
103499.783976
103499.783962
103499.783949
103499.783934
103499.783917
103499.783896
103499.783869
103499.783834
103499.783787
103499.783724
103499.783644
103499.783543
103499.78342
103499.747307
103499.747307
103499.747305
103499.747303
103499.7473
103499.747297
103499.747293
103499.747288
103499.747282
103499.747276
103499.74727
103499.747262
103499.747254
103499.747246
103499.747236
103499.747226
103499.747215
103499.747204
103499.747192
103499.747179
103499.747165
103499.747151
103499.747136
103499.74712
103499.747104
103499.747086
103499.747068
103499.74705
103499.74703
103499.74701
103499.746989
103499.746967
103499.746945
103499.746922
103499.746899
103499.746874
103499.746849
103499.746824
103499.746798
103499.746772
103499.746745
103499.746717
103499.74669
103499.746662
103499.746633
103499.746605
103499.746576
103499.746548
103499.746519
103499.74649
103499.746462
103499.746433
103499.746405
103499.746377
103499.74635
103499.746323
103499.746297
103499.746272
103499.746247
103499.746223
103499.7462
103499.746178
103499.746156
103499.746136
103499.746116
103499.746098
103499.746079
103499.746061
103499.746044
103499.746025
103499.746006
103499.745984
103499.745959
103499.745929
103499.745893
103499.745849
103499.745795
103499.745729
103499.74565
103499.745556
103499.745447
103499.706698
103499.706697
103499.706696
103499.706694
103499.706691
103499.706688
103499.706684
103499.706679
103499.706674
103499.706668
103499.706661
103499.706654
103499.706646
103499.706637
103499.706628
103499.706618
103499.706607
103499.706596
103499.706584
103499.706571
103499.706558
103499.706544
103499.706529
103499.706514
103499.706498
103499.706481
103499.706463
103499.706445
103499.706426
103499.706406
103499.706386
103499.706365
103499.706343
103499.706321
103499.706298
103499.706274
103499.70625
103499.706226
103499.706201
103499.706175
103499.706149
103499.706123
103499.706096
103499.706069
103499.706042
103499.706015
103499.705987
103499.70596
103499.705932
103499.705905
103499.705878
103499.70585
103499.705823
103499.705797
103499.705771
103499.705745
103499.70572
103499.705695
103499.705671
103499.705647
103499.705624
103499.705602
103499.70558
103499.705559
103499.705538
103499.705517
103499.705497
103499.705476
103499.705454
103499.705431
103499.705406
103499.705379
103499.705348
103499.705312
103499.70527
103499.705222
103499.705165
103499.705099
103499.705023
103499.704937
103499.704841
103499.663245
103499.663244
103499.663242
103499.66324
103499.663238
103499.663234
103499.66323
103499.663226
103499.66322
103499.663214
103499.663208
103499.663201
103499.663193
103499.663184
103499.663175
103499.663165
103499.663155
103499.663144
103499.663132
103499.66312
103499.663107
103499.663093
103499.663079
103499.663063
103499.663048
103499.663031
103499.663014
103499.662996
103499.662978
103499.662959
103499.662939
103499.662918
103499.662897
103499.662876
103499.662854
103499.662831
103499.662808
103499.662784
103499.66276
103499.662735
103499.662711
103499.662685
103499.66266
103499.662634
103499.662608
103499.662582
103499.662556
103499.662529
103499.662503
103499.662477
103499.662451
103499.662425
103499.662399
103499.662373
103499.662348
103499.662323
103499.662299
103499.662275
103499.662251
103499.662228
103499.662205
103499.662182
103499.66216
103499.662138
103499.662116
103499.662093
103499.662071
103499.662047
103499.662022
103499.661996
103499.661967
103499.661935
103499.6619
103499.661861
103499.661816
103499.661766
103499.661709
103499.661645
103499.661574
103499.661496
103499.661412
103499.616747
103499.616747
103499.616745
103499.616743
103499.616741
103499.616737
103499.616733
103499.616729
103499.616724
103499.616718
103499.616711
103499.616704
103499.616696
103499.616688
103499.616679
103499.61667
103499.616659
103499.616649
103499.616637
103499.616625
103499.616612
103499.616599
103499.616585
103499.61657
103499.616555
103499.616539
103499.616522
103499.616505
103499.616487
103499.616468
103499.616449
103499.616429
103499.616409
103499.616388
103499.616367
103499.616345
103499.616323
103499.6163
103499.616277
103499.616254
103499.61623
103499.616206
103499.616181
103499.616157
103499.616132
103499.616107
103499.616082
103499.616057
103499.616032
103499.616007
103499.615982
103499.615957
103499.615933
103499.615908
103499.615884
103499.61586
103499.615836
103499.615813
103499.61579
103499.615767
103499.615744
103499.615721
103499.615698
103499.615675
103499.615652
103499.615628
103499.615603
103499.615577
103499.61555
103499.615521
103499.61549
103499.615455
103499.615418
103499.615377
103499.615331
103499.615281
103499.615226
103499.615165
103499.6151
103499.61503
103499.614955
103499.566993
103499.566993
103499.566991
103499.566989
103499.566987
103499.566983
103499.56698
103499.566975
103499.56697
103499.566964
103499.566958
103499.566951
103499.566943
103499.566935
103499.566927
103499.566917
103499.566907
103499.566897
103499.566885
103499.566874
103499.566861
103499.566848
103499.566834
103499.56682
103499.566805
103499.56679
103499.566774
103499.566757
103499.56674
103499.566722
103499.566703
103499.566684
103499.566665
103499.566645
103499.566624
103499.566604
103499.566582
103499.566561
103499.566539
103499.566516
103499.566493
103499.56647
103499.566447
103499.566424
103499.5664
103499.566377
103499.566353
103499.566329
103499.566306
103499.566282
103499.566258
103499.566235
103499.566211
103499.566188
103499.566164
103499.566141
103499.566118
103499.566096
103499.566073
103499.56605
103499.566027
103499.566004
103499.565981
103499.565957
103499.565933
103499.565908
103499.565882
103499.565855
103499.565826
103499.565795
103499.565762
103499.565727
103499.565689
103499.565647
103499.565602
103499.565553
103499.565501
103499.565445
103499.565385
103499.565322
103499.565256
103499.513755
103499.513754
103499.513753
103499.513751
103499.513748
103499.513745
103499.513741
103499.513737
103499.513732
103499.513726
103499.51372
103499.513713
103499.513706
103499.513698
103499.513689
103499.51368
103499.51367
103499.51366
103499.513649
103499.513638
103499.513626
103499.513613
103499.5136
103499.513586
103499.513572
103499.513557
103499.513541
103499.513525
103499.513508
103499.513491
103499.513474
103499.513455
103499.513437
103499.513418
103499.513398
103499.513378
103499.513358
103499.513338
103499.513317
103499.513295
103499.513274
103499.513252
103499.51323
103499.513208
103499.513186
103499.513163
103499.513141
103499.513119
103499.513096
103499.513074
103499.513051
103499.513029
103499.513006
103499.512984
103499.512962
103499.51294
103499.512918
103499.512895
103499.512873
103499.512851
103499.512828
103499.512805
103499.512781
103499.512757
103499.512733
103499.512707
103499.51268
103499.512652
103499.512623
103499.512591
103499.512558
103499.512522
103499.512484
103499.512444
103499.5124
103499.512354
103499.512305
103499.512254
103499.5122
103499.512143
103499.512084
103499.456787
103499.456786
103499.456785
103499.456783
103499.45678
103499.456777
103499.456774
103499.456769
103499.456764
103499.456759
103499.456753
103499.456746
103499.456739
103499.456731
103499.456723
103499.456714
103499.456705
103499.456695
103499.456684
103499.456673
103499.456662
103499.456649
103499.456637
103499.456623
103499.456609
103499.456595
103499.45658
103499.456565
103499.456549
103499.456533
103499.456516
103499.456499
103499.456481
103499.456463
103499.456444
103499.456425
103499.456406
103499.456387
103499.456367
103499.456347
103499.456327
103499.456306
103499.456286
103499.456265
103499.456244
103499.456223
103499.456202
103499.456181
103499.45616
103499.456138
103499.456117
103499.456096
103499.456075
103499.456054
103499.456032
103499.456011
103499.45599
103499.455968
103499.455946
103499.455924
103499.455902
103499.455879
103499.455856
103499.455832
103499.455807
103499.455781
103499.455754
103499.455726
103499.455696
103499.455665
103499.455632
103499.455598
103499.455561
103499.455522
103499.455481
103499.455438
103499.455393
103499.455346
103499.455297
103499.455247
103499.455195
103499.395829
103499.395828
103499.395827
103499.395825
103499.395823
103499.39582
103499.395816
103499.395812
103499.395807
103499.395802
103499.395796
103499.39579
103499.395783
103499.395775
103499.395767
103499.395759
103499.395749
103499.39574
103499.39573
103499.395719
103499.395708
103499.395696
103499.395684
103499.395671
103499.395658
103499.395644
103499.39563
103499.395616
103499.3956
103499.395585
103499.395569
103499.395553
103499.395536
103499.395519
103499.395501
103499.395484
103499.395466
103499.395447
103499.395429
103499.39541
103499.395391
103499.395372
103499.395353
103499.395333
103499.395314
103499.395294
103499.395274
103499.395255
103499.395235
103499.395215
103499.395195
103499.395175
103499.395155
103499.395135
103499.395115
103499.395094
103499.395074
103499.395053
103499.395032
103499.395011
103499.394989
103499.394966
103499.394943
103499.39492
103499.394895
103499.39487
103499.394843
103499.394816
103499.394787
103499.394756
103499.394725
103499.394691
103499.394657
103499.39462
103499.394582
103499.394543
103499.394501
103499.394459
103499.394415
103499.39437
103499.394325
103499.330601
103499.330601
103499.3306
103499.330598
103499.330595
103499.330592
103499.330589
103499.330585
103499.33058
103499.330575
103499.33057
103499.330563
103499.330557
103499.33055
103499.330542
103499.330534
103499.330525
103499.330516
103499.330506
103499.330496
103499.330485
103499.330474
103499.330462
103499.33045
103499.330438
103499.330425
103499.330411
103499.330397
103499.330383
103499.330369
103499.330354
103499.330338
103499.330323
103499.330307
103499.33029
103499.330274
103499.330257
103499.33024
103499.330223
103499.330205
103499.330188
103499.33017
103499.330152
103499.330134
103499.330116
103499.330098
103499.330079
103499.330061
103499.330042
103499.330024
103499.330005
103499.329987
103499.329968
103499.329949
103499.32993
103499.32991
103499.329891
103499.329871
103499.329851
103499.32983
103499.329809
103499.329787
103499.329765
103499.329742
103499.329719
103499.329694
103499.329668
103499.329642
103499.329614
103499.329585
103499.329555
103499.329524
103499.329492
103499.329458
103499.329423
103499.329387
103499.32935
103499.329312
103499.329273
103499.329234
103499.329193
103499.260805
103499.260805
103499.260804
103499.260802
103499.2608
103499.260797
103499.260793
103499.260789
103499.260785
103499.26078
103499.260775
103499.260769
103499.260762
103499.260755
103499.260748
103499.26074
103499.260732
103499.260723
103499.260714
103499.260704
103499.260694
103499.260684
103499.260673
103499.260661
103499.260649
103499.260637
103499.260625
103499.260612
103499.260598
103499.260585
103499.260571
103499.260556
103499.260542
103499.260527
103499.260512
103499.260497
103499.260481
103499.260465
103499.260449
103499.260433
103499.260417
103499.260401
103499.260384
103499.260368
103499.260351
103499.260334
103499.260317
103499.2603
103499.260283
103499.260266
103499.260249
103499.260231
103499.260214
103499.260196
103499.260178
103499.26016
103499.260142
103499.260123
103499.260104
103499.260084
103499.260064
103499.260044
103499.260023
103499.260001
103499.259978
103499.259955
103499.259931
103499.259906
103499.25988
103499.259853
103499.259825
103499.259796
103499.259767
103499.259736
103499.259705
103499.259672
103499.259639
103499.259605
103499.259571
103499.259536
103499.259501
103499.186121
103499.18612
103499.186119
103499.186117
103499.186115
103499.186112
103499.186109
103499.186105
103499.186101
103499.186096
103499.186091
103499.186086
103499.18608
103499.186073
103499.186066
103499.186059
103499.186051
103499.186043
103499.186034
103499.186025
103499.186015
103499.186005
103499.185995
103499.185984
103499.185973
103499.185962
103499.18595
103499.185938
103499.185926
103499.185913
103499.1859
103499.185887
103499.185874
103499.18586
103499.185846
103499.185832
103499.185818
103499.185804
103499.185789
103499.185774
103499.18576
103499.185745
103499.18573
103499.185715
103499.185699
103499.185684
103499.185669
103499.185653
103499.185638
103499.185622
103499.185606
103499.18559
103499.185574
103499.185557
103499.185541
103499.185524
103499.185507
103499.185489
103499.185471
103499.185453
103499.185434
103499.185415
103499.185395
103499.185375
103499.185354
103499.185332
103499.18531
103499.185287
103499.185263
103499.185238
103499.185213
103499.185187
103499.18516
103499.185133
103499.185105
103499.185076
103499.185047
103499.185017
103499.184987
103499.184957
103499.184926
103499.106205
103499.106204
103499.106203
103499.106202
103499.1062
103499.106197
103499.106194
103499.10619
103499.106186
103499.106182
103499.106177
103499.106172
103499.106166
103499.10616
103499.106153
103499.106146
103499.106139
103499.106131
103499.106123
103499.106115
103499.106106
103499.106097
103499.106087
103499.106077
103499.106067
103499.106057
103499.106046
103499.106035
103499.106023
103499.106012
103499.106
103499.105988
103499.105976
103499.105964
103499.105951
103499.105938
103499.105925
103499.105912
103499.105899
103499.105886
103499.105873
103499.105859
103499.105846
103499.105832
103499.105818
103499.105805
103499.105791
103499.105777
103499.105763
103499.105749
103499.105734
103499.10572
103499.105705
103499.10569
103499.105675
103499.105659
103499.105644
103499.105628
103499.105611
103499.105594
103499.105577
103499.10556
103499.105541
103499.105523
103499.105504
103499.105484
103499.105464
103499.105443
103499.105421
103499.105399
103499.105377
103499.105353
103499.10533
103499.105306
103499.105281
103499.105256
103499.105231
103499.105205
103499.105179
103499.105153
103499.105126
103499.020692
103499.020691
103499.02069
103499.020689
103499.020687
103499.020684
103499.020682
103499.020678
103499.020674
103499.02067
103499.020666
103499.020661
103499.020655
103499.02065
103499.020644
103499.020637
103499.02063
103499.020623
103499.020616
103499.020608
103499.0206
103499.020591
103499.020583
103499.020574
103499.020564
103499.020555
103499.020545
103499.020535
103499.020525
103499.020514
103499.020504
103499.020493
103499.020482
103499.020471
103499.02046
103499.020448
103499.020437
103499.020425
103499.020414
103499.020402
103499.02039
103499.020378
103499.020366
103499.020354
103499.020342
103499.02033
103499.020317
103499.020305
103499.020292
103499.02028
103499.020267
103499.020254
103499.020241
103499.020228
103499.020214
103499.0202
103499.020186
103499.020172
103499.020157
103499.020142
103499.020126
103499.02011
103499.020094
103499.020077
103499.02006
103499.020043
103499.020025
103499.020006
103499.019987
103499.019968
103499.019948
103499.019928
103499.019907
103499.019887
103499.019865
103499.019844
103499.019822
103499.0198
103499.019778
103499.019756
103499.019733
103498.929189
103498.929189
103498.929188
103498.929186
103498.929185
103498.929182
103498.92918
103498.929177
103498.929173
103498.929169
103498.929165
103498.929161
103498.929156
103498.92915
103498.929145
103498.929139
103498.929133
103498.929126
103498.929119
103498.929112
103498.929105
103498.929097
103498.929089
103498.929081
103498.929073
103498.929064
103498.929056
103498.929047
103498.929038
103498.929028
103498.929019
103498.929009
103498.929
103498.92899
103498.92898
103498.92897
103498.92896
103498.92895
103498.92894
103498.92893
103498.92892
103498.928909
103498.928899
103498.928888
103498.928878
103498.928867
103498.928856
103498.928846
103498.928835
103498.928824
103498.928812
103498.928801
103498.92879
103498.928778
103498.928766
103498.928754
103498.928741
103498.928729
103498.928716
103498.928703
103498.928689
103498.928675
103498.928661
103498.928646
103498.928632
103498.928616
103498.928601
103498.928585
103498.928569
103498.928552
103498.928535
103498.928518
103498.928501
103498.928483
103498.928465
103498.928447
103498.928429
103498.92841
103498.928392
103498.928373
103498.928355
103498.831278
103498.831277
103498.831277
103498.831275
103498.831274
103498.831271
103498.831269
103498.831266
103498.831263
103498.83126
103498.831256
103498.831252
103498.831247
103498.831242
103498.831237
103498.831232
103498.831226
103498.83122
103498.831214
103498.831208
103498.831201
103498.831195
103498.831188
103498.831181
103498.831173
103498.831166
103498.831158
103498.83115
103498.831142
103498.831134
103498.831126
103498.831118
103498.83111
103498.831102
103498.831093
103498.831085
103498.831076
103498.831067
103498.831059
103498.83105
103498.831041
103498.831033
103498.831024
103498.831015
103498.831006
103498.830997
103498.830988
103498.830979
103498.83097
103498.83096
103498.830951
103498.830941
103498.830931
103498.830921
103498.830911
103498.830901
103498.83089
103498.83088
103498.830869
103498.830857
103498.830846
103498.830834
103498.830822
103498.83081
103498.830797
103498.830784
103498.830771
103498.830758
103498.830745
103498.830731
103498.830717
103498.830702
103498.830688
103498.830673
103498.830659
103498.830644
103498.830629
103498.830614
103498.830599
103498.830584
103498.830569
103498.726508
103498.726508
103498.726507
103498.726506
103498.726505
103498.726503
103498.726501
103498.726498
103498.726495
103498.726492
103498.726489
103498.726485
103498.726481
103498.726477
103498.726472
103498.726468
103498.726463
103498.726458
103498.726452
103498.726447
103498.726441
103498.726435
103498.726429
103498.726423
103498.726417
103498.72641
103498.726404
103498.726397
103498.726391
103498.726384
103498.726377
103498.72637
103498.726363
103498.726356
103498.726349
103498.726342
103498.726335
103498.726328
103498.726321
103498.726314
103498.726307
103498.7263
103498.726292
103498.726285
103498.726278
103498.726271
103498.726263
103498.726256
103498.726248
103498.726241
103498.726233
103498.726225
103498.726217
103498.726209
103498.726201
103498.726192
103498.726184
103498.726175
103498.726166
103498.726157
103498.726147
103498.726138
103498.726128
103498.726118
103498.726108
103498.726097
103498.726087
103498.726076
103498.726065
103498.726054
103498.726043
103498.726032
103498.72602
103498.726009
103498.725997
103498.725985
103498.725973
103498.725962
103498.72595
103498.725938
103498.725926
103498.614401
103498.614401
103498.6144
103498.614399
103498.614398
103498.614396
103498.614394
103498.614392
103498.614389
103498.614387
103498.614384
103498.614381
103498.614377
103498.614373
103498.61437
103498.614366
103498.614361
103498.614357
103498.614353
103498.614348
103498.614343
103498.614338
103498.614333
103498.614328
103498.614323
103498.614318
103498.614312
103498.614307
103498.614301
103498.614296
103498.61429
103498.614285
103498.614279
103498.614274
103498.614268
103498.614263
103498.614257
103498.614252
103498.614246
103498.614241
103498.614235
103498.614229
103498.614224
103498.614218
103498.614213
103498.614207
103498.614201
103498.614196
103498.61419
103498.614184
103498.614178
103498.614172
103498.614166
103498.61416
103498.614153
103498.614147
103498.61414
103498.614133
103498.614126
103498.614119
103498.614112
103498.614105
103498.614097
103498.61409
103498.614082
103498.614074
103498.614066
103498.614058
103498.614049
103498.614041
103498.614032
103498.614024
103498.614015
103498.614006
103498.613998
103498.613989
103498.61398
103498.613971
103498.613962
103498.613953
103498.613944
103498.494441
103498.494441
103498.494441
103498.49444
103498.494439
103498.494437
103498.494436
103498.494434
103498.494432
103498.494429
103498.494427
103498.494424
103498.494421
103498.494418
103498.494415
103498.494412
103498.494408
103498.494405
103498.494401
103498.494397
103498.494393
103498.49439
103498.494386
103498.494381
103498.494377
103498.494373
103498.494369
103498.494365
103498.494361
103498.494357
103498.494352
103498.494348
103498.494344
103498.49434
103498.494336
103498.494332
103498.494328
103498.494324
103498.49432
103498.494316
103498.494312
103498.494308
103498.494304
103498.4943
103498.494296
103498.494292
103498.494288
103498.494284
103498.49428
103498.494276
103498.494272
103498.494268
103498.494263
103498.494259
103498.494255
103498.49425
103498.494245
103498.494241
103498.494236
103498.494231
103498.494226
103498.494221
103498.494215
103498.49421
103498.494205
103498.494199
103498.494193
103498.494188
103498.494182
103498.494176
103498.49417