/*--------------------------------*- C++ -*----------------------------------*\
| =========                 |                                                 |
| \\      /  F ield         | OpenFOAM: The Open Source CFD Toolbox           |
|  \\    /   O peration     | Version:  2112                                  |
|   \\  /    A nd           | Website:  www.openfoam.com                      |
|    \\/     M anipulation  |                                                 |
\*---------------------------------------------------------------------------*/
FoamFile
{
    version     2.0;
    format      ascii;
    arch        "LSB;label=32;scalar=64";
    class       volScalarField;
    location    "0.6";
    object      p_rgh;
}
// * * * * * * * * * * * * * * * * * * * * * * * * * * * * * * * * * * * * * //

dimensions      [1 -1 -2 0 0 0 0];

internalField   nonuniform List<scalar> 
12013
(
103500.00117
103500.001169
103500.001168
103500.001165
103500.001163
103500.001159
103500.001155
103500.00115
103500.001144
103500.001138
103500.001131
103500.001123
103500.001115
103500.001105
103500.001095
103500.001085
103500.001073
103500.001061
103500.001048
103500.001034
103500.001019
103500.001004
103500.000987
103500.00097
103500.000952
103500.000932
103500.000912
103500.000891
103500.000869
103500.000846
103500.000822
103500.000797
103500.000771
103500.000744
103500.000717
103500.000688
103500.000658
103500.000628
103500.000596
103500.000564
103500.000531
103500.000497
103500.000463
103500.000428
103500.000392
103500.000356
103500.000319
103500.000282
103500.000244
103500.000206
103500.000168
103500.00013
103500.000093
103500.000055
103500.000018
103499.999981
103499.999945
103499.999909
103499.999875
103499.999842
103499.999811
103499.999781
103499.999754
103499.99973
103499.999709
103499.999691
103499.999678
103499.999671
103499.99967
103499.999677
103499.999693
103499.99972
103499.999763
103499.999823
103499.999908
103500.000024
103500.000182
103500.000398
103500.0007
103500.001175
103500.00191
103500.00117
103500.001169
103500.001168
103500.001165
103500.001163
103500.001159
103500.001155
103500.00115
103500.001144
103500.001138
103500.001131
103500.001123
103500.001115
103500.001105
103500.001096
103500.001085
103500.001073
103500.001061
103500.001048
103500.001034
103500.001019
103500.001004
103500.000987
103500.00097
103500.000952
103500.000933
103500.000912
103500.000891
103500.000869
103500.000846
103500.000822
103500.000797
103500.000772
103500.000745
103500.000717
103500.000688
103500.000659
103500.000628
103500.000597
103500.000564
103500.000531
103500.000498
103500.000463
103500.000428
103500.000392
103500.000356
103500.000319
103500.000282
103500.000244
103500.000207
103500.000169
103500.000131
103500.000093
103500.000055
103500.000018
103499.999981
103499.999944
103499.999909
103499.999875
103499.999842
103499.99981
103499.999781
103499.999753
103499.999728
103499.999707
103499.999689
103499.999675
103499.999667
103499.999665
103499.99967
103499.999683
103499.999708
103499.999745
103499.999799
103499.999872
103499.99997
103500.000098
103500.000259
103500.00046
103500.000726
103500.001035
103500.00117
103500.001169
103500.001168
103500.001166
103500.001163
103500.001159
103500.001155
103500.00115
103500.001144
103500.001138
103500.001131
103500.001123
103500.001115
103500.001106
103500.001096
103500.001085
103500.001074
103500.001061
103500.001048
103500.001034
103500.00102
103500.001004
103500.000988
103500.00097
103500.000952
103500.000933
103500.000913
103500.000892
103500.00087
103500.000847
103500.000823
103500.000798
103500.000772
103500.000745
103500.000717
103500.000689
103500.000659
103500.000629
103500.000597
103500.000565
103500.000532
103500.000498
103500.000464
103500.000429
103500.000393
103500.000357
103500.00032
103500.000282
103500.000245
103500.000207
103500.000169
103500.000131
103500.000093
103500.000055
103500.000018
103499.999981
103499.999944
103499.999909
103499.999874
103499.999841
103499.999809
103499.999779
103499.999751
103499.999725
103499.999703
103499.999684
103499.999669
103499.999658
103499.999654
103499.999655
103499.999665
103499.999683
103499.999712
103499.999753
103499.999807
103499.999877
103499.99996
103500.000051
103500.000137
103500.00019
103500.000141
103500.00117
103500.001169
103500.001168
103500.001166
103500.001163
103500.001159
103500.001155
103500.00115
103500.001144
103500.001138
103500.001131
103500.001123
103500.001115
103500.001106
103500.001096
103500.001085
103500.001074
103500.001062
103500.001048
103500.001035
103500.00102
103500.001004
103500.000988
103500.000971
103500.000952
103500.000933
103500.000913
103500.000892
103500.00087
103500.000847
103500.000823
103500.000798
103500.000773
103500.000746
103500.000718
103500.000689
103500.00066
103500.000629
103500.000598
103500.000566
103500.000533
103500.000499
103500.000465
103500.00043
103500.000394
103500.000357
103500.000321
103500.000283
103500.000246
103500.000208
103500.00017
103500.000132
103500.000093
103500.000056
103500.000018
103499.999981
103499.999944
103499.999908
103499.999873
103499.999839
103499.999807
103499.999776
103499.999747
103499.99972
103499.999696
103499.999676
103499.999658
103499.999645
103499.999637
103499.999634
103499.999636
103499.999646
103499.999663
103499.999687
103499.999719
103499.999756
103499.999793
103499.999822
103499.999824
103499.999769
103499.999611
103500.00117
103500.00117
103500.001168
103500.001166
103500.001163
103500.001159
103500.001155
103500.00115
103500.001145
103500.001138
103500.001131
103500.001124
103500.001115
103500.001106
103500.001096
103500.001085
103500.001074
103500.001062
103500.001049
103500.001035
103500.00102
103500.001005
103500.000988
103500.000971
103500.000953
103500.000934
103500.000914
103500.000893
103500.000871
103500.000848
103500.000824
103500.000799
103500.000774
103500.000747
103500.000719
103500.00069
103500.000661
103500.000631
103500.000599
103500.000567
103500.000534
103500.0005
103500.000466
103500.000431
103500.000395
103500.000359
103500.000322
103500.000285
103500.000247
103500.000209
103500.000171
103500.000132
103500.000094
103500.000056
103500.000018
103499.99998
103499.999943
103499.999907
103499.999871
103499.999837
103499.999804
103499.999772
103499.999742
103499.999713
103499.999688
103499.999664
103499.999644
103499.999627
103499.999614
103499.999604
103499.999599
103499.999598
103499.999601
103499.999607
103499.999615
103499.99962
103499.999618
103499.999599
103499.999549
103499.999447
103499.999271
103500.00117
103500.00117
103500.001168
103500.001166
103500.001163
103500.00116
103500.001155
103500.00115
103500.001145
103500.001139
103500.001132
103500.001124
103500.001115
103500.001106
103500.001097
103500.001086
103500.001075
103500.001062
103500.001049
103500.001036
103500.001021
103500.001006
103500.000989
103500.000972
103500.000954
103500.000935
103500.000915
103500.000894
103500.000872
103500.000849
103500.000825
103500.000801
103500.000775
103500.000748
103500.000721
103500.000692
103500.000663
103500.000632
103500.000601
103500.000569
103500.000536
103500.000502
103500.000468
103500.000433
103500.000397
103500.000361
103500.000324
103500.000286
103500.000249
103500.00021
103500.000172
103500.000134
103500.000095
103500.000057
103500.000018
103499.99998
103499.999943
103499.999906
103499.99987
103499.999834
103499.9998
103499.999766
103499.999735
103499.999705
103499.999676
103499.99965
103499.999626
103499.999604
103499.999585
103499.999568
103499.999554
103499.999541
103499.99953
103499.999518
103499.999503
103499.999482
103499.999449
103499.999397
103499.999317
103499.999197
103499.999026
103500.001171
103500.00117
103500.001168
103500.001166
103500.001163
103500.00116
103500.001156
103500.001151
103500.001145
103500.001139
103500.001132
103500.001124
103500.001116
103500.001107
103500.001097
103500.001086
103500.001075
103500.001063
103500.00105
103500.001036
103500.001022
103500.001006
103500.00099
103500.000973
103500.000955
103500.000936
103500.000916
103500.000895
103500.000873
103500.000851
103500.000827
103500.000802
103500.000777
103500.00075
103500.000722
103500.000694
103500.000665
103500.000634
103500.000603
103500.000571
103500.000538
103500.000505
103500.00047
103500.000435
103500.000399
103500.000363
103500.000326
103500.000289
103500.000251
103500.000213
103500.000174
103500.000135
103500.000097
103500.000058
103500.000019
103499.999981
103499.999942
103499.999904
103499.999867
103499.999831
103499.999795
103499.99976
103499.999726
103499.999694
103499.999662
103499.999633
103499.999604
103499.999577
103499.999552
103499.999527
103499.999503
103499.999479
103499.999454
103499.999426
103499.999392
103499.99935
103499.999295
103499.999223
103499.999127
103499.999002
103499.998845
103500.001171
103500.00117
103500.001169
103500.001167
103500.001164
103500.00116
103500.001156
103500.001151
103500.001146
103500.001139
103500.001132
103500.001125
103500.001117
103500.001107
103500.001098
103500.001087
103500.001076
103500.001064
103500.001051
103500.001037
103500.001023
103500.001008
103500.000991
103500.000974
103500.000956
103500.000937
103500.000918
103500.000897
103500.000875
103500.000852
103500.000829
103500.000804
103500.000779
103500.000752
103500.000725
103500.000696
103500.000667
103500.000637
103500.000606
103500.000574
103500.000541
103500.000508
103500.000473
103500.000438
103500.000402
103500.000366
103500.000329
103500.000292
103500.000254
103500.000215
103500.000176
103500.000138
103500.000098
103500.000059
103500.00002
103499.999981
103499.999942
103499.999903
103499.999865
103499.999827
103499.999789
103499.999753
103499.999717
103499.999681
103499.999647
103499.999613
103499.99958
103499.999547
103499.999515
103499.999483
103499.999449
103499.999415
103499.999377
103499.999335
103499.999287
103499.999229
103499.99916
103499.999076
103499.998975
103499.998853
103499.99871
103500.001171
103500.001171
103500.001169
103500.001167
103500.001164
103500.001161
103500.001156
103500.001152
103500.001146
103500.00114
103500.001133
103500.001125
103500.001117
103500.001108
103500.001099
103500.001088
103500.001077
103500.001065
103500.001052
103500.001039
103500.001024
103500.001009
103500.000993
103500.000976
103500.000958
103500.000939
103500.00092
103500.000899
103500.000877
103500.000855
103500.000831
103500.000807
103500.000782
103500.000755
103500.000728
103500.0007
103500.00067
103500.00064
103500.000609
103500.000578
103500.000545
103500.000511
103500.000477
103500.000442
103500.000406
103500.00037
103500.000333
103500.000295
103500.000257
103500.000219
103500.00018
103500.00014
103500.000101
103500.000061
103500.000021
103499.999981
103499.999941
103499.999902
103499.999862
103499.999823
103499.999783
103499.999744
103499.999706
103499.999668
103499.99963
103499.999592
103499.999554
103499.999516
103499.999477
103499.999437
103499.999395
103499.999351
103499.999303
103499.99925
103499.999191
103499.999124
103499.999046
103499.998957
103499.998855
103499.998738
103499.998608
103500.001172
103500.001171
103500.00117
103500.001167
103500.001165
103500.001161
103500.001157
103500.001152
103500.001147
103500.001141
103500.001134
103500.001126
103500.001118
103500.001109
103500.0011
103500.001089
103500.001078
103500.001066
103500.001054
103500.00104
103500.001026
103500.001011
103500.000995
103500.000978
103500.00096
103500.000942
103500.000922
103500.000902
103500.00088
103500.000858
103500.000834
103500.00081
103500.000785
103500.000759
103500.000732
103500.000703
103500.000674
103500.000645
103500.000614
103500.000582
103500.000549
103500.000516
103500.000482
103500.000447
103500.000411
103500.000375
103500.000338
103500.0003
103500.000262
103500.000223
103500.000184
103500.000144
103500.000104
103500.000064
103500.000023
103499.999982
103499.999942
103499.999901
103499.99986
103499.999818
103499.999777
103499.999736
103499.999695
103499.999654
103499.999612
103499.99957
103499.999527
103499.999484
103499.999439
103499.999392
103499.999344
103499.999292
103499.999236
103499.999175
103499.999108
103499.999034
103499.998953
103499.998862
103499.998762
103499.998652
103499.998534
103500.001172
103500.001172
103500.00117
103500.001168
103500.001165
103500.001162
103500.001158
103500.001153
103500.001148
103500.001142
103500.001135
103500.001127
103500.001119
103500.00111
103500.001101
103500.001091
103500.00108
103500.001068
103500.001055
103500.001042
103500.001028
103500.001013
103500.000997
103500.00098
103500.000963
103500.000944
103500.000925
103500.000905
103500.000883
103500.000861
103500.000838
103500.000814
103500.000789
103500.000763
103500.000736
103500.000708
103500.000679
103500.00065
103500.000619
103500.000587
103500.000555
103500.000522
103500.000488
103500.000453
103500.000417
103500.00038
103500.000343
103500.000306
103500.000267
103500.000228
103500.000189
103500.000149
103500.000108
103500.000067
103500.000026
103499.999984
103499.999942
103499.9999
103499.999858
103499.999815
103499.999772
103499.999728
103499.999684
103499.99964
103499.999595
103499.999549
103499.999502
103499.999454
103499.999404
103499.999352
103499.999297
103499.999239
103499.999177
103499.999111
103499.99904
103499.998962
103499.998879
103499.998789
103499.998693
103499.99859
103499.998481
103500.001173
103500.001172
103500.001171
103500.001169
103500.001166
103500.001163
103500.001159
103500.001154
103500.001149
103500.001143
103500.001136
103500.001129
103500.001121
103500.001112
103500.001102
103500.001092
103500.001081
103500.00107
103500.001057
103500.001044
103500.00103
103500.001015
103500.001
103500.000983
103500.000966
103500.000948
103500.000929
103500.000909
103500.000888
103500.000866
103500.000843
103500.000819
103500.000794
103500.000768
103500.000742
103500.000714
103500.000685
103500.000656
103500.000625
103500.000594
103500.000562
103500.000528
103500.000494
103500.00046
103500.000424
103500.000388
103500.00035
103500.000313
103500.000274
103500.000235
103500.000195
103500.000155
103500.000114
103500.000072
103500.00003
103499.999988
103499.999945
103499.999901
103499.999857
103499.999812
103499.999767
103499.999722
103499.999675
103499.999628
103499.99958
103499.99953
103499.99948
103499.999427
103499.999373
103499.999316
103499.999257
103499.999195
103499.999129
103499.99906
103499.998986
103499.998908
103499.998825
103499.998737
103499.998645
103499.998548
103499.998448
103500.001174
103500.001173
103500.001172
103500.00117
103500.001167
103500.001164
103500.00116
103500.001155
103500.00115
103500.001144
103500.001137
103500.00113
103500.001122
103500.001114
103500.001104
103500.001094
103500.001084
103500.001072
103500.00106
103500.001047
103500.001033
103500.001019
103500.001003
103500.000987
103500.00097
103500.000952
103500.000933
103500.000913
103500.000892
103500.000871
103500.000848
103500.000825
103500.0008
103500.000775
103500.000748
103500.000721
103500.000692
103500.000663
103500.000633
103500.000602
103500.00057
103500.000537
103500.000503
103500.000468
103500.000433
103500.000396
103500.000359
103500.000321
103500.000282
103500.000243
103500.000203
103500.000162
103500.000121
103500.000079
103500.000036
103499.999992
103499.999948
103499.999904
103499.999858
103499.999812
103499.999765
103499.999717
103499.999669
103499.999619
103499.999568
103499.999516
103499.999462
103499.999406
103499.999349
103499.999289
103499.999226
103499.999161
103499.999093
103499.999022
103499.998948
103499.99887
103499.998789
103499.998704
103499.998616
103499.998525
103499.998432
103500.001175
103500.001174
103500.001173
103500.001171
103500.001168
103500.001165
103500.001161
103500.001156
103500.001151
103500.001145
103500.001139
103500.001132
103500.001124
103500.001116
103500.001107
103500.001097
103500.001086
103500.001075
103500.001063
103500.00105
103500.001037
103500.001022
103500.001007
103500.000991
103500.000974
103500.000957
103500.000938
103500.000918
103500.000898
103500.000877
103500.000854
103500.000831
103500.000807
103500.000782
103500.000756
103500.000729
103500.000701
103500.000672
103500.000642
103500.000611
103500.000579
103500.000546
103500.000513
103500.000478
103500.000443
103500.000407
103500.00037
103500.000332
103500.000293
103500.000253
103500.000213
103500.000172
103500.00013
103500.000087
103500.000044
103499.999999
103499.999954
103499.999909
103499.999862
103499.999814
103499.999766
103499.999716
103499.999666
103499.999614
103499.999561
103499.999506
103499.99945
103499.999392
103499.999332
103499.99927
103499.999206
103499.99914
103499.999071
103499.998999
103499.998925
103499.998849
103499.99877
103499.998688
103499.998605
103499.998519
103499.998433
103500.001176
103500.001176
103500.001174
103500.001172
103500.00117
103500.001166
103500.001162
103500.001158
103500.001153
103500.001147
103500.001141
103500.001134
103500.001126
103500.001118
103500.001109
103500.0011
103500.001089
103500.001078
103500.001066
103500.001054
103500.001041
103500.001027
103500.001012
103500.000996
103500.00098
103500.000962
103500.000944
103500.000925
103500.000905
103500.000884
103500.000862
103500.000839
103500.000815
103500.000791
103500.000765
103500.000738
103500.000711
103500.000682
103500.000652
103500.000622
103500.00059
103500.000558
103500.000525
103500.00049
103500.000455
103500.000419
103500.000382
103500.000344
103500.000305
103500.000266
103500.000225
103500.000184
103500.000142
103500.000098
103500.000054
103500.00001
103499.999964
103499.999917
103499.999869
103499.999821
103499.999771
103499.99972
103499.999668
103499.999615
103499.99956
103499.999504
103499.999446
103499.999387
103499.999325
103499.999262
103499.999198
103499.999131
103499.999062
103499.998991
103499.998919
103499.998844
103499.998768
103499.99869
103499.998611
103499.99853
103499.998449
103500.001178
103500.001177
103500.001176
103500.001174
103500.001171
103500.001168
103500.001164
103500.00116
103500.001155
103500.001149
103500.001143
103500.001136
103500.001129
103500.001121
103500.001112
103500.001103
103500.001093
103500.001082
103500.001071
103500.001058
103500.001045
103500.001032
103500.001017
103500.001002
103500.000986
103500.000969
103500.000951
103500.000932
103500.000913
103500.000892
103500.000871
103500.000848
103500.000825
103500.000801
103500.000775
103500.000749
103500.000722
103500.000694
103500.000665
103500.000635
103500.000604
103500.000572
103500.000539
103500.000505
103500.00047
103500.000434
103500.000397
103500.000359
103500.000321
103500.000281
103500.00024
103500.000199
103500.000156
103500.000113
103500.000069
103500.000023
103499.999977
103499.99993
103499.999881
103499.999832
103499.999781
103499.999729
103499.999676
103499.999622
103499.999566
103499.999509
103499.999451
103499.999391
103499.999329
103499.999266
103499.999202
103499.999136
103499.999068
103499.998999
103499.998928
103499.998856
103499.998783
103499.998709
103499.998633
103499.998557
103499.998481
103500.001179
103500.001179
103500.001177
103500.001176
103500.001173
103500.00117
103500.001166
103500.001162
103500.001157
103500.001152
103500.001146
103500.001139
103500.001132
103500.001124
103500.001116
103500.001107
103500.001097
103500.001086
103500.001075
103500.001063
103500.001051
103500.001038
103500.001023
103500.001009
103500.000993
103500.000976
103500.000959
103500.000941
103500.000922
103500.000902
103500.000881
103500.000859
103500.000836
103500.000812
103500.000788
103500.000762
103500.000735
103500.000708
103500.000679
103500.00065
103500.000619
103500.000588
103500.000555
103500.000522
103500.000487
103500.000452
103500.000415
103500.000378
103500.000339
103500.0003
103500.000259
103500.000218
103500.000175
103500.000132
103500.000087
103500.000042
103499.999995
103499.999948
103499.999899
103499.999849
103499.999798
103499.999746
103499.999692
103499.999638
103499.999582
103499.999525
103499.999466
103499.999407
103499.999346
103499.999283
103499.99922
103499.999155
103499.999089
103499.999021
103499.998953
103499.998884
103499.998814
103499.998743
103499.998672
103499.998601
103499.998529
103500.001181
103500.001181
103500.00118
103500.001178
103500.001175
103500.001172
103500.001169
103500.001165
103500.00116
103500.001155
103500.001149
103500.001143
103500.001136
103500.001128
103500.00112
103500.001111
103500.001102
103500.001092
103500.001081
103500.001069
103500.001057
103500.001044
103500.001031
103500.001016
103500.001001
103500.000985
103500.000968
103500.000951
103500.000932
103500.000913
103500.000892
103500.000871
103500.000849
103500.000826
103500.000802
103500.000777
103500.000751
103500.000724
103500.000696
103500.000667
103500.000637
103500.000606
103500.000574
103500.000541
103500.000507
103500.000472
103500.000436
103500.000399
103500.000361
103500.000322
103500.000282
103500.000241
103500.000199
103500.000155
103500.000111
103500.000066
103500.000019
103499.999972
103499.999923
103499.999873
103499.999822
103499.99977
103499.999717
103499.999663
103499.999607
103499.999551
103499.999493
103499.999434
103499.999374
103499.999313
103499.999251
103499.999188
103499.999125
103499.99906
103499.998995
103499.998928
103499.998862
103499.998795
103499.998728
103499.99866
103499.998593
103500.001184
103500.001183
103500.001182
103500.00118
103500.001178
103500.001175
103500.001172
103500.001168
103500.001163
103500.001158
103500.001153
103500.001147
103500.00114
103500.001133
103500.001125
103500.001116
103500.001107
103500.001098
103500.001087
103500.001076
103500.001065
103500.001052
103500.001039
103500.001025
103500.001011
103500.000995
103500.000979
103500.000962
103500.000944
103500.000925
103500.000906
103500.000885
103500.000864
103500.000842
103500.000818
103500.000794
103500.000769
103500.000743
103500.000715
103500.000687
103500.000658
103500.000628
103500.000597
103500.000564
103500.000531
103500.000497
103500.000461
103500.000425
103500.000387
103500.000349
103500.000309
103500.000269
103500.000227
103500.000184
103500.000141
103500.000096
103500.00005
103500.000003
103499.999955
103499.999906
103499.999855
103499.999804
103499.999752
103499.999698
103499.999644
103499.999589
103499.999532
103499.999475
103499.999417
103499.999358
103499.999298
103499.999237
103499.999176
103499.999114
103499.999052
103499.998989
103499.998926
103499.998863
103499.9988
103499.998736
103499.998673
103500.001186
103500.001186
103500.001185
103500.001183
103500.001181
103500.001178
103500.001175
103500.001171
103500.001167
103500.001162
103500.001157
103500.001151
103500.001145
103500.001138
103500.00113
103500.001122
103500.001114
103500.001104
103500.001095
103500.001084
103500.001073
103500.001061
103500.001049
103500.001035
103500.001021
103500.001007
103500.000991
103500.000975
103500.000958
103500.00094
103500.000921
103500.000901
103500.000881
103500.000859
103500.000837
103500.000813
103500.000789
103500.000764
103500.000738
103500.00071
103500.000682
103500.000653
103500.000622
103500.000591
103500.000559
103500.000525
103500.000491
103500.000455
103500.000419
103500.000381
103500.000342
103500.000303
103500.000262
103500.00022
103500.000177
103500.000133
103500.000088
103500.000042
103499.999995
103499.999947
103499.999898
103499.999848
103499.999797
103499.999745
103499.999693
103499.999639
103499.999585
103499.999529
103499.999473
103499.999417
103499.99936
103499.999302
103499.999244
103499.999185
103499.999126
103499.999067
103499.999007
103499.998948
103499.998888
103499.998829
103499.998769
103500.00119
103500.001189
103500.001188
103500.001186
103500.001184
103500.001182
103500.001179
103500.001175
103500.001171
103500.001167
103500.001162
103500.001156
103500.00115
103500.001144
103500.001137
103500.001129
103500.001121
103500.001112
103500.001103
103500.001093
103500.001082
103500.001071
103500.001059
103500.001047
103500.001034
103500.00102
103500.001005
103500.00099
103500.000973
103500.000956
103500.000938
103500.00092
103500.0009
103500.000879
103500.000858
103500.000836
103500.000812
103500.000788
103500.000763
103500.000737
103500.000709
103500.000681
103500.000652
103500.000622
103500.00059
103500.000558
103500.000525
103500.00049
103500.000455
103500.000418
103500.000381
103500.000342
103500.000303
103500.000262
103500.000221
103500.000178
103500.000135
103500.00009
103500.000045
103499.999998
103499.999951
103499.999903
103499.999854
103499.999804
103499.999754
103499.999702
103499.99965
103499.999598
103499.999544
103499.999491
103499.999437
103499.999382
103499.999327
103499.999272
103499.999216
103499.999161
103499.999105
103499.999049
103499.998994
103499.998938
103499.998883
103500.001193
103500.001193
103500.001192
103500.00119
103500.001188
103500.001186
103500.001183
103500.00118
103500.001176
103500.001172
103500.001167
103500.001162
103500.001156
103500.00115
103500.001144
103500.001137
103500.001129
103500.001121
103500.001112
103500.001103
103500.001093
103500.001083
103500.001072
103500.00106
103500.001047
103500.001034
103500.00102
103500.001006
103500.000991
103500.000975
103500.000958
103500.00094
103500.000921
103500.000902
103500.000882
103500.00086
103500.000838
103500.000815
103500.000791
103500.000766
103500.00074
103500.000713
103500.000686
103500.000657
103500.000627
103500.000596
103500.000564
103500.000531
103500.000497
103500.000462
103500.000426
103500.000389
103500.000351
103500.000312
103500.000273
103500.000232
103500.00019
103500.000148
103500.000104
103500.00006
103500.000015
103499.999969
103499.999923
103499.999875
103499.999827
103499.999779
103499.99973
103499.99968
103499.99963
103499.99958
103499.999529
103499.999478
103499.999426
103499.999375
103499.999323
103499.999271
103499.99922
103499.999168
103499.999116
103499.999065
103499.999013
103500.001197
103500.001197
103500.001196
103500.001195
103500.001193
103500.001191
103500.001188
103500.001185
103500.001181
103500.001178
103500.001173
103500.001169
103500.001163
103500.001158
103500.001152
103500.001145
103500.001138
103500.001131
103500.001123
103500.001114
103500.001105
103500.001095
103500.001085
103500.001074
103500.001063
103500.001051
103500.001038
103500.001024
103500.00101
103500.000995
103500.000979
103500.000963
103500.000945
103500.000927
103500.000908
103500.000888
103500.000868
103500.000846
103500.000823
103500.0008
103500.000775
103500.00075
103500.000724
103500.000696
103500.000668
103500.000639
103500.000609
103500.000577
103500.000545
103500.000512
103500.000478
103500.000443
103500.000407
103500.000371
103500.000333
103500.000294
103500.000255
103500.000215
103500.000174
103500.000132
103500.00009
103500.000047
103500.000003
103499.999959
103499.999914
103499.999869
103499.999823
103499.999777
103499.99973
103499.999683
103499.999636
103499.999589
103499.999541
103499.999494
103499.999446
103499.999398
103499.99935
103499.999303
103499.999255
103499.999208
103499.999161
103500.001202
103500.001202
103500.001201
103500.001199
103500.001198
103500.001196
103500.001193
103500.001191
103500.001188
103500.001184
103500.00118
103500.001176
103500.001171
103500.001166
103500.001161
103500.001155
103500.001148
103500.001142
103500.001134
103500.001127
103500.001118
103500.00111
103500.0011
103500.00109
103500.00108
103500.001069
103500.001057
103500.001045
103500.001032
103500.001018
103500.001003
103500.000988
103500.000972
103500.000955
103500.000938
103500.000919
103500.0009
103500.00088
103500.000859
103500.000837
103500.000814
103500.000791
103500.000766
103500.000741
103500.000714
103500.000687
103500.000659
103500.00063
103500.0006
103500.000569
103500.000537
103500.000505
103500.000471
103500.000437
103500.000402
103500.000366
103500.000329
103500.000292
103500.000254
103500.000215
103500.000176
103500.000136
103500.000096
103500.000055
103500.000013
103499.999972
103499.999929
103499.999887
103499.999844
103499.999801
103499.999758
103499.999715
103499.999671
103499.999628
103499.999584
103499.99954
103499.999497
103499.999453
103499.99941
103499.999367
103499.999324
103500.001207
103500.001207
103500.001206
103500.001205
103500.001204
103500.001202
103500.0012
103500.001197
103500.001194
103500.001191
103500.001188
103500.001184
103500.00118
103500.001176
103500.001171
103500.001165
103500.00116
103500.001154
103500.001147
103500.00114
103500.001133
103500.001125
103500.001117
103500.001108
103500.001099
103500.001089
103500.001078
103500.001067
103500.001055
103500.001043
103500.00103
103500.001016
103500.001001
103500.000986
103500.00097
103500.000954
103500.000936
103500.000918
103500.000899
103500.000879
103500.000858
103500.000836
103500.000814
103500.00079
103500.000766
103500.000741
103500.000715
103500.000688
103500.000661
103500.000633
103500.000603
103500.000573
103500.000543
103500.000511
103500.000479
103500.000446
103500.000413
103500.000379
103500.000344
103500.000309
103500.000273
103500.000236
103500.0002
103500.000162
103500.000125
103500.000087
103500.000049
103500.00001
103499.999971
103499.999932
103499.999893
103499.999854
103499.999815
103499.999776
103499.999736
103499.999697
103499.999658
103499.999619
103499.99958
103499.999541
103499.999502
103500.001213
103500.001213
103500.001212
103500.001211
103500.00121
103500.001208
103500.001207
103500.001204
103500.001202
103500.001199
103500.001196
103500.001193
103500.00119
103500.001186
103500.001182
103500.001177
103500.001172
103500.001167
103500.001161
103500.001155
103500.001149
103500.001142
103500.001135
103500.001127
103500.001119
103500.00111
103500.001101
103500.001091
103500.001081
103500.00107
103500.001059
103500.001046
103500.001033
103500.00102
103500.001006
103500.000991
103500.000975
103500.000959
103500.000942
103500.000924
103500.000905
103500.000886
103500.000865
103500.000844
103500.000823
103500.0008
103500.000777
103500.000753
103500.000728
103500.000703
103500.000676
103500.000649
103500.000622
103500.000593
103500.000565
103500.000535
103500.000505
103500.000474
103500.000443
103500.000412
103500.000379
103500.000347
103500.000314
103500.000281
103500.000247
103500.000213
103500.000179
103500.000145
103500.00011