/*--------------------------------*- C++ -*----------------------------------*\
| =========                 |                                                 |
| \\      /  F ield         | OpenFOAM: The Open Source CFD Toolbox           |
|  \\    /   O peration     | Version:  2112                                  |
|   \\  /    A nd           | Website:  www.openfoam.com                      |
|    \\/     M anipulation  |                                                 |
\*---------------------------------------------------------------------------*/
FoamFile
{
    version     2.0;
    format      ascii;
    arch        "LSB;label=32;scalar=64";
    class       surfaceScalarField;
    location    "0.6";
    object      phi;
}
// * * * * * * * * * * * * * * * * * * * * * * * * * * * * * * * * * * * * * //

dimensions      [1 0 -1 0 0 0 0];

oriented        oriented;

internalField   nonuniform List<scalar> 
23692
(
2.32684096815e-06
1.47912667915e-10
2.32613900843e-06
7.02313683666e-10
2.32451995904e-06
1.61968479966e-09
2.32187946666e-06
2.64147050719e-09
2.31841606297e-06
3.46468033724e-09
2.31450375193e-06
3.91396825348e-09
2.31051059194e-06
3.99525130762e-09
2.30667875214e-06
3.83446804829e-09
2.30310109008e-06
3.58082648605e-09
2.29976251491e-06
3.34240552997e-09
2.29659810805e-06
3.16897559366e-09
2.29353732466e-06
3.06621342983e-09
2.29052602278e-06
3.01770961519e-09
2.28753136957e-06
3.00213632088e-09
2.2845379653e-06
3.00207178004e-09
2.28154153823e-06
3.00640142469e-09
2.27854356386e-06
3.00939936081e-09
2.2755476546e-06
3.00887638847e-09
2.27255765286e-06
3.0047018494e-09
2.26957682557e-06
2.99743353495e-09
2.26660765957e-06
2.98774478322e-09
2.26365201866e-06
2.97638839533e-09
2.26071129016e-06
2.96374622628e-09
2.25778659418e-06
2.95012453305e-09
2.25487894997e-06
2.93561242925e-09
2.2519893735e-06
2.92021586225e-09
2.24911896321e-06
2.90380979171e-09
2.24626892646e-06
2.88630019642e-09
2.24344057571e-06
2.86760542975e-09
2.24063528783e-06
2.84763843027e-09
2.23785444025e-06
2.82635805974e-09
2.23509938575e-06
2.80378841483e-09
2.23237134237e-06
2.78007690534e-09
2.22967131938e-06
2.75537622289e-09
2.22700001758e-06
2.73001399604e-09
2.22435773342e-06
2.70441565307e-09
2.22174426825e-06
2.67898145068e-09
2.21915880556e-06
2.65436711321e-09
2.21659984533e-06
2.63126617957e-09
2.21406505397e-06
2.61046937054e-09
2.21155120294e-06
2.59288924339e-09
2.20905407561e-06
2.57943411618e-09
2.20656837925e-06
2.57125861418e-09
2.20408760848e-06
2.56946963691e-09
2.20160402211e-06
2.57542568687e-09
2.19910845211e-06
2.59038858617e-09
2.19659029789e-06
2.61593101257e-09
2.19403731859e-06
2.65356568044e-09
2.19143556086e-06
2.70508466596e-09
2.18876914415e-06
2.77236548601e-09
2.18602010179e-06
2.85747854378e-09
2.18316813773e-06
2.96278060461e-09
2.18019031741e-06
3.09092139362e-09
2.17706065462e-06
3.24487996363e-09
2.17374970528e-06
3.42817095029e-09
2.17022389151e-06
3.6448850549e-09
2.16644484035e-06
3.89990900612e-09
2.16236826551e-06
4.19898530147e-09
2.15794293421e-06
4.54925184788e-09
2.1531089514e-06
4.95919060923e-09
2.14779592497e-06
5.43946997508e-09
2.14192026751e-06
6.0031571401e-09
2.13538192635e-06
6.66676794179e-09
2.12805995468e-06
7.45118840185e-09
2.11980668822e-06
8.38316388119e-09
2.11043971187e-06
9.49740444933e-09
2.09973103593e-06
1.08395185374e-08
2.08739188268e-06
1.24703005748e-08
2.07305114473e-06
1.44720520645e-08
2.05622433855e-06
1.69581721777e-08
2.03626803007e-06
2.00876075971e-08
2.01231173899e-06
2.40874385526e-08
1.98315439189e-06
2.9288219643e-08
1.94710440828e-06
3.61805006381e-08
1.90172858289e-06
4.55058713327e-08
1.84345513812e-06
5.8402945592e-08
1.76694941371e-06
7.66346266211e-08
1.66411107264e-06
1.02966564037e-07
1.52218804726e-06
1.42050541322e-07
1.3197299243e-06
2.02584933399e-07
3.0764971719e-07
1.01220642268e-06
2.48983903573e-06
2.92464258329e-10
2.48910708214e-06
1.43469308267e-09
2.4874010304e-06
3.32640854757e-09
2.48460504246e-06
5.43841336348e-09
2.48092641976e-06
7.14469188267e-09
2.4767614552e-06
8.08072392624e-09
2.47250247329e-06
8.25649527822e-09
2.46840927644e-06
7.93043637421e-09
2.46458318599e-06
7.41034925631e-09
2.46101027788e-06
6.91939070582e-09
2.45762295772e-06
6.56120008771e-09
2.45434697527e-06
6.34804250838e-09
2.45112502957e-06
6.24648172851e-09
2.447922173e-06
6.21293769329e-09
2.44472183866e-06
6.21167408054e-09
2.44151923156e-06
6.2196857192e-09
2.43831567261e-06
6.22517897685e-09
2.43511479926e-06
6.22374151188e-09
2.43192051507e-06
6.21477717354e-09
2.42873615247e-06
6.19951547717e-09
2.42556426562e-06
6.17954663322e-09
2.42240673993e-06
6.15609527044e-09
2.41926499629e-06
6.13012078325e-09
2.41614017234e-06
6.10211812006e-09
2.41303330638e-06
6.07237239092e-09
2.4099454336e-06
6.04080806192e-09
2.4068776892e-06
6.00728291681e-09
2.40383132203e-06
5.97150959589e-09
2.4008076875e-06
5.93328257421e-09
2.39780821529e-06
5.89242207482e-09
2.39483432952e-06
5.84890533003e-09
2.39188742705e-06
5.80284751905e-09
2.38896874128e-06
5.75438523435e-09
2.38607930919e-06
5.70400499429e-09
2.38321983038e-06
5.65232901098e-09
2.38039055005e-06
5.60009983723e-09
2.37759122844e-06
5.54842940268e-09
2.37482093758e-06
5.49839917587e-09
2.37207803921e-06
5.45154360461e-09
2.36936001723e-06
5.40947265789e-09
2.36666338481e-06
5.3740124819e-09
2.36398365378e-06
5.34722064365e-09
2.36131514016e-06
5.33129981951e-09
2.35865094656e-06
5.32859778192e-09
2.35598280122e-06
5.34177892765e-09
2.35330101218e-06
5.37367080049e-09
2.3505942886e-06
5.42722514249e-09
2.3478496884e-06
5.5057842291e-09
2.34505241991e-06
5.61289269741e-09
2.34218569134e-06
5.75240427494e-09
2.33923053274e-06
5.92865960016e-09
2.33616552295e-06
6.14635974798e-09
2.33296647826e-06
6.41092802936e-09
2.32960608587e-06
6.72851763197e-09
2.32605341564e-06
7.1062574244e-09
2.32227329004e-06
7.55244352536e-09
2.31822554151e-06
8.07691045751e-09
2.31386406028e-06
8.69148815018e-09
2.30913550817e-06
9.41033965951e-09
2.3039779127e-06
1.02508083806e-08
2.29831855659e-06
1.12340696539e-08
2.29207163513e-06
1.23864867336e-08
2.285134929e-06
1.37408857124e-08
2.27738565275e-06
1.53387036316e-08
2.26867502831e-06
1.72327677477e-08
2.25882090228e-06
1.9491085443e-08
2.24759804573e-06
2.22023800866e-08
2.2347248702e-06
2.5483767456e-08
2.21984530784e-06
2.94921069589e-08
2.20250364966e-06
3.44403646353e-08
2.1821097006e-06
4.06220513367e-08
2.15789009968e-06
4.84473494526e-08
2.12882123057e-06
5.84971132904e-08
2.09353893884e-06
7.16024262057e-08
2.05022458282e-06
8.89593589768e-08
1.9964844731e-06
1.1228162422e-07
1.92929537412e-06
1.43961614645e-07
1.84524079467e-06
1.87158281953e-07
1.74171473015e-06
2.45712970484e-07
1.62199263607e-06
3.22442535021e-07
4.0705719211e-07
1.52271977986e-06
2.66425814114e-06
4.29603375143e-10
2.6635109524e-06
2.18229916059e-09
2.66174342864e-06
5.09471284244e-09
2.65882358823e-06
8.3593381783e-09
2.65495924413e-06
1.10104866814e-08
2.65056150228e-06
1.24803623297e-08
2.64604340818e-06
1.27769463855e-08
2.64168332169e-06
1.2293487765e-08
2.63759472475e-06
1.15025817022e-08
2.63376922585e-06
1.07493432099e-08
2.63014004761e-06
1.01956615587e-08
2.62663136226e-06
9.86293461878e-09
2.62318361542e-06
9.70154747606e-09
2.6197598094e-06
9.64529345064e-09
2.61634185669e-06
9.63954053954e-09
2.61292397199e-06
9.64894978949e-09
2.60950686921e-06
9.65536434273e-09
2.606093815e-06
9.65165106937e-09
2.60268851017e-06
9.63693860274e-09
2.59929415346e-06
9.61291175978e-09
2.59591319053e-06
9.58178219207e-09
2.59254745233e-06
9.5455563144e-09
2.58919829235e-06
9.50557947039e-09
2.58586682019e-06
9.46269927201e-09
2.58255403179e-06
9.4171526284e-09
2.57926095954e-06
9.3689375534e-09
2.57598871968e-06
9.31773997469e-09
2.57273856703e-06
9.26318043475e-09
2.56951184334e-06
9.20490390728e-09
2.5663099823e-06
9.14272125784e-09
2.56313440494e-06
9.07655953223e-09
2.5599864769e-06
9.00652350677e-09
2.55686741716e-06
8.93295452319e-09
2.55377819713e-06
8.85659584642e-09
2.55071942787e-06
8.77827558264e-09
2.54769128038e-06
8.6993286386e-09
2.54469334008e-06
8.62128110684e-09
2.54172454894e-06
8.54604678748e-09
2.53878303576e-06
8.47580756093e-09
2.53586603876e-06
8.41306901708e-09
2.53296980143e-06
8.36066414034e-09
2.53008949885e-06
8.32173930137e-09
2.52721904945e-06
8.29959859104e-09
2.52435114481e-06
8.29801888512e-09
2.52147702118e-06
8.32097572983e-09
2.51858642166e-06
8.37276406953e-09
2.51566749285e-06
8.45803104301e-09
2.51270660392e-06
8.58179558019e-09
2.50968823143e-06
8.74947253927e-09
2.50659483639e-06
8.96705391453e-09
2.50340656917e-06
9.24099472943e-09
2.5001011399e-06
9.57862113462e-09
2.49665339622e-06
9.98807299095e-09
2.49303504623e-06
1.04787262601e-08
2.48921413684e-06
1.10613117965e-08
2.48515446363e-06
1.17483785884e-08
2.48081488942e-06
1.2554754411e-08
2.47614835634e-06
1.34981050266e-08
2.47110083269e-06
1.45996604489e-08
2.46560983771e-06
1.58851102149e-08
2.45960272045e-06
1.73858986943e-08
2.45299439264e-06
1.91407219309e-08
2.44568460761e-06
2.11976523815e-08
2.43755437115e-06
2.36168276587e-08
2.42846153244e-06
2.64742365414e-08
2.41823509088e-06
2.98668029328e-08
2.40666795421e-06
3.39192575837e-08
2.39350785243e-06
3.87939756389e-08
2.37844579827e-06
4.47044503618e-08
2.36110212722e-06
5.19343967907e-08
2.34101006359e-06
6.08643975068e-08
2.31759865773e-06
7.20088575924e-08
2.29017955704e-06
8.60659958528e-08
2.25794974079e-06
1.03981609816e-07
2.22003718921e-06
1.27020736376e-07
2.17564741857e-06
1.56819599875e-07
2.12442122437e-06
1.95335280688e-07
2.06721733915e-06
2.44508823038e-07
2.00783124876e-06
3.05244796334e-07
1.95616324714e-06
3.74255295454e-07
4.35378306674e-07
1.92798574999e-06
2.85089913339e-06
5.54079737669e-10
2.85015608672e-06
2.92580275529e-09
2.84836156377e-06
6.88999336071e-09
2.84536187058e-06
1.13601781393e-08
2.8413545195e-06
1.50194290314e-08
2.83675519637e-06
1.70817146507e-08
2.83199249715e-06
1.75422366325e-08
2.82736402945e-06
1.69251390103e-08
2.82299997986e-06
1.5870528156e-08
2.8189030423e-06
1.48509471932e-08
2.81501187672e-06
1.4092410951e-08
2.81125196164e-06
1.36294871815e-08
2.80756276065e-06
1.33985933578e-08
2.80390541953e-06
1.33118066079e-08
2.80025994072e-06
1.3295589638e-08
2.7966189731e-06
1.33021651416e-08
2.79298202778e-06
1.33062938205e-08
2.78935154257e-06
1.32980428001e-08
2.78573063752e-06
1.327587386e-08
2.78212210628e-06
1.32417249267e-08
2.77852812693e-06
1.31984682578e-08
2.77495032207e-06
1.31487195594e-08
2.77138990649e-06
1.30941986518e-08
2.767847863e-06
1.30358407795e-08
2.76432511786e-06
1.29741126757e-08
2.76082263442e-06
1.29088707346e-08
2.75734147839e-06
1.28397501096e-08
2.75388284726e-06
1.27662059194e-08
2.75044803586e-06
1.26877773996e-08
2.74703841569e-06
1.26041768068e-08
2.74365533445e-06
1.25153233782e-08
2.74030007332e-06
1.24213924173e-08
2.73697376068e-06
1.23229443767e-08
2.73367719121e-06
1.22208346448e-08
2.73041085761e-06
1.21164503191e-08
2.72717472569e-06
1.20114493729e-08
2.72396818192e-06
1.1908004946e-08
2.72078990802e-06
1.18086589469e-08
2.71763775834e-06
1.17164144768e-08
2.71450868086e-06
1.16347359577e-08
2.71139860507e-06
1.15674268815e-08
2.70830232075e-06
1.15187122659e-08
2.70521339184e-06
1.14931987607e-08
2.70212406848e-06
1.14959054105e-08
2.69902514538e-06
1.153224333e-08
2.69590590547e-06
1.16080364148e-08
2.69275398622e-06
1.17295967672e-08
2.68955521667e-06
1.19036368359e-08
2.68629355364e-06
1.2137562637e-08
2.68295087159e-06
1.24393423685e-08
2.67950680553e-06
1.28177609934e-08
2.67593847821e-06
1.32825451845e-08
2.67222025722e-06
1.38446721412e-08
2.66832339386e-06
1.45165749249e-08
2.66421562e-06
1.53125364557e-08
2.6598605715e-06
1.62491591413e-08
2.65521720732e-06
1.7345987317e-08
2.65023895904e-06
1.86261835523e-08
2.64487283531e-06
2.01174031386e-08
2.63905822133e-06
2.18529873671e-08
2.63272547e-06
2.38733705237e-08
2.62579421444e-06
2.6228011106e-08
2.61817135014e-06
2.89776891003e-08
2.60974860819e-06
3.21977269744e-08
2.6003997679e-06
3.59820816388e-08
2.58997739705e-06
4.04488029618e-08
2.57830947765e-06
4.57473305024e-08
2.56519585649e-06
5.20681090538e-08
2.55040553442e-06
5.96554909621e-08
2.53367609889e-06
6.88246449632e-08
2.51471792928e-06
7.99832870318e-08
2.49322878287e-06
9.36585392157e-08
2.46892783963e-06
1.10527144072e-07
2.44162656933e-06
1.31442630128e-07
2.41136425242e-06
1.57442205745e-07
2.37865004299e-06
1.89692313185e-07
2.34485763788e-06
2.29285367221e-07
2.31279708495e-06
2.76726143567e-07
2.28736283038e-06
3.30834795094e-07
2.27520462877e-06
3.86568104291e-07
4.31565488437e-07
2.27917075011e-06
3.05061898328e-06
6.59531190689e-10
3.04990323627e-06
3.64205231466e-09
3.04812411268e-06
8.66999711181e-09
3.04510001337e-06
1.43855474981e-08
3.04100517551e-06
1.91158893206e-08
3.03624713205e-06
2.18419170457e-08
3.03126310043e-06
2.2529041156e-08
3.02637015256e-06
2.1821487597e-08
3.02172022552e-06
2.05245880131e-08
3.0173336846e-06
1.92424788849e-08
3.01316024067e-06
1.82719209441e-08
3.00913030695e-06
1.7666534403e-08
3.00518407201e-06
1.73531527162e-08
3.00128118758e-06
1.72244295204e-08
2.9973993881e-06
1.71887004011e-08
2.9935290713e-06
1.71855220076e-08
2.98966789952e-06
1.71823943306e-08
2.98581690936e-06
1.71660951034e-08
2.98197819446e-06
1.71338442471e-08
2.97815384153e-06
1.70877801512e-08
2.97434553983e-06
1.70311450221e-08
2.9705545444e-06
1.69668253837e-08
2.9667818061e-06
1.68969902752e-08
2.96302814338e-06
1.68227357603e-08
2.95929431814e-06
1.67444994919e-08
2.95558119361e-06
1.66620766817e-08
2.95188971681e-06
1.65748984691e-08
2.94822099195e-06
1.64823679944e-08
2.94457620204e-06
1.63838961353e-08
2.94095659822e-06
1.62791360145e-08
2.93736338842e-06
1.61680075566e-08
2.93379769816e-06
1.6050805326e-08
2.93026044902e-06
1.59282229188e-08
2.92675223364e-06
1.58014429142e-08
2.92327327937e-06
1.56721820451e-08
2.91982329971e-06
1.55426643182e-08
2.91640136994e-06
1.5415598904e-08
2.91300585669e-06
1.52942810369e-08
2.90963428907e-06
1.51825368979e-08
2.9062832636e-06
1.50847132771e-08
2.9029483679e-06
1.500568364e-08
2.89962402629e-06
1.49507031182e-08
2.89630343454e-06
1.49256642714e-08
2.89297847669e-06
1.49368858872e-08
2.88963959546e-06
1.49911825905e-08
2.88627573525e-06
1.50959341429e-08
2.8828741624e-06
1.52589964433e-08
2.87942043333e-06
1.54889320611e-08
2.87589820876e-06
1.57949197848e-08
2.87228915918e-06
1.618696005e-08
2.86857276679e-06
1.66760000602e-08
2.86472612469e-06
1.72741413776e-08
2.86072371166e-06
1.79949967484e-08
2.85653710706e-06
1.88538791196e-08
2.85213465309e-06
1.98683129781e-08
2.84748099469e-06
2.1058607735e-08
2.84253663505e-06
2.24484370979e-08
2.83725729132e-06
2.40656986628e-08
2.83159329841e-06
2.5943505997e-08
2.82548873464e-06
2.8121383485e-08
2.81888063169e-06
3.06469144937e-08
2.81169794073e-06
3.35775167934e-08
2.80386064328e-06
3.69830379923e-08
2.79527873466e-06
4.09487312427e-08
2.78585157132e-06
4.55792138441e-08
2.77546763997e-06
5.10034241359e-08
2.76400535134e-06
5.73808527635e-08
2.75133565405e-06
6.49094238244e-08
2.73732792194e-06
7.38350838298e-08
2.72186135563e-06
8.44631768318e-08
2.7048455243e-06
9.71709753205e-08
2.68625609418e-06
1.12419629165e-07
2.6661936535e-06
1.30760882848e-07
2.64497764057e-06
1.52829464823e-07
2.62328797554e-06
1.79302072435e-07
2.60236120715e-06
2.1078851517e-07
2.58421955034e-06
2.47595595869e-07
2.57183385665e-06
2.89279425398e-07
2.56893518046e-06
3.33899932189e-07
2.5787003484e-06
3.76968122251e-07
4.10532316117e-07
2.59989731319e-06
3.26433409429e-06
7.38632117152e-10
3.26367119092e-06
4.30543595036e-09
3.26195524408e-06
1.0386797815e-08
3.25897072758e-06
1.73713565518e-08
3.25485446166e-06
2.32339741542e-08
3.24999121227e-06
2.67074890071e-08
3.24481829037e-06
2.77048538083e-08
3.23967160895e-06
2.69718058987e-08
3.2347298955e-06
2.54707997282e-08
3.23003827973e-06
2.39395133292e-08
3.22556381647e-06
2.27527488383e-08
3.22124614606e-06
2.1991834395e-08
3.21702832623e-06
2.15799615498e-08
3.21286910713e-06
2.13940437119e-08
3.20874368745e-06
2.13262316279e-08
3.20463956033e-06
2.13035527072e-08
3.20055184652e-06
2.12860653656e-08
3.19647953432e-06
2.12565521022e-08
3.19242325536e-06
2.12107322838e-08
3.18838400852e-06
2.11502079227e-08
3.18436273531e-06
2.10783489794e-08
3.18036018532e-06
2.09983456136e-08
3.17637690921e-06
2.09123649069e-08
3.17241347127e-06
2.08217084439e-08
3.16847040855e-06
2.07266021947e-08
3.16454841504e-06
2.06268255672e-08
3.1606482955e-06
2.05216784091e-08
3.1567709845e-06
2.04103635435e-08
3.15291750173e-06
2.02922336861e-08
3.14908891201e-06
2.01668914126e-08
3.14528621006e-06
2.00342738373e-08
3.14151027204e-06
1.98948155092e-08
3.13776173922e-06
1.97494080773e-08
3.1340409043e-06
1.95995761633e-08
3.13034766133e-06
1.94474495939e-08
3.12668135723e-06
1.92957356991e-08
3.12304070192e-06
1.91477874199e-08
3.11942367709e-06
1.90075862889e-08
3.11582743402e-06
1.88798143305e-08
3.11224821372e-06
1.87697059883e-08
3.10868121532e-06
1.86830564505e-08
3.10512056879e-06
1.86263646252e-08
3.10155914151e-06
1.86065994364e-08
3.09798855744e-06
1.86314199139e-08
3.09439906251e-06
1.87089935678e-08
3.0907794089e-06
1.88480995157e-08
3.08711680213e-06
1.90582351554e-08
3.0833967703e-06
1.93495447703e-08
3.07960309837e-06
1.97329724113e-08
3.07571769731e-06
2.02204014045e-08
3.07172045192e-06
2.08247720792e-08
3.06758912681e-06
2.15603780161e-08
3.06329910586e-06
2.24430732556e-08
3.05882328647e-06
2.34907285501e-08
3.05413182822e-06
2.47236467963e-08
3.04919179772e-06
2.61650933439e-08
3.04396702722e-06
2.7842118432e-08
3.03841769573e-06
2.97862083625e-08
3.03250005745e-06
3.20343574302e-08
3.02616619033e-06
3.46303643239e-08
3.01936370295e-06
3.76261567048e-08
3.01203581723e-06
4.10836875587e-08
3.00412150011e-06
4.50769576503e-08
2.99555619851e-06
4.96947508116e-08
2.98627339278e-06
5.50437066129e-08
2.97620727135e-06
6.12519888481e-08
2.96529747854e-06
6.84736848436e-08
2.95349675508e-06
7.68935918463e-08
2.9407832229e-06
8.67323248414e-08
2.92717926036e-06
9.82509424888e-08
2.91278017846e-06
1.11753800367e-07
2.8977963612e-06
1.27586943389e-07
2.88261306511e-06
1.46127331039e-07
2.86787062802e-06
1.6775449252e-07
2.85456324362e-06
1.92791425707e-07
2.84413905757e-06
2.21393841249e-07
2.83855383751e-06
2.53361044357e-07
2.84016847157e-06
2.87843929848e-07
2.85128803066e-06
3.2295828308e-07
2.87302431661e-06
3.55408411015e-07
3.80473577012e-07
2.90325809379e-06
3.49302416825e-06
7.84161463651e-10
3.49243965932e-06
4.89048889294e-09
3.49083584254e-06
1.19915861214e-08
3.48795833819e-06
2.02503026658e-08
3.483892702e-06
2.73014739942e-08
3.47898571599e-06
3.16169941457e-08
3.47366504398e-06
3.3028682798e-08
3.4682835664e-06
3.23572009259e-08
3.46305103605e-06
3.07080156655e-08
3.45804419415e-06
2.8952045201e-08
3.45325395002e-06
2.75498701181e-08
3.44863375766e-06
2.66201278938e-08
3.44413210167e-06
2.6091112297e-08
3.43970779262e-06
2.58295405363e-08
3.43533337183e-06
2.5713559429e-08
3.43099294883e-06
2.56588847263e-08
3.42667841575e-06
2.56176725896e-08
3.42238614262e-06
2.55681972222e-08
3.41811477904e-06
2.55040511561e-08
3.41386390162e-06
2.54258067043e-08
3.40963345246e-06
2.53365515512e-08
3.40542345864e-06
2.52392798114e-08
3.4012339987e-06
2.513618386e-08
3.39706522831e-06
2.50283711357e-08
3.39291744922e-06
2.49160958269e-08
3.38879110238e-06
2.47988443143e-08
3.38468678282e-06
2.46757732767e-08
3.3806052247e-06
2.45460189094e-08
3.37654720959e-06
2.44087984652e-08
3.37251353861e-06
2.426371846e-08
3.36850493115e-06
2.41107469427e-08
3.36452191547e-06
2.39504995096e-08
3.36056478612e-06
2.37841376265e-08
3.35663344383e-06
2.36135036552e-08
3.35272735838e-06
2.34411413472e-08
3.34884544889e-06
2.32702941569e-08
3.3449859815e-06
2.31049570294e-08
3.34114653846e-06
2.29498570418e-08
3.33732385282e-06
2.28103615842e-08
3.33351379048e-06
2.26926458772e-08
3.32971126986e-06
2.26034765944e-08
3.32591010972e-06
2.25503269067e-08
3.32210302793e-06
2.25413434241e-08
3.31828151365e-06
2.25852983264e-08
3.31443580621e-06
2.26916834978e-08
3.31055478491e-06
2.28706534635e-08
3.30662587276e-06
2.31330410478e-08
3.30263500803e-06
2.34905121115e-08
3.29856659588e-06
2.3955600193e-08
3.29440336446e-06
2.45417633116e-08
3.29012633144e-06
2.52636718372e-08
3.28571472202e-06
2.61374118945e-08
3.2811458855e-06
2.71807271159e-08
3.27639520656e-06
2.84134087122e-08
3.27143602375e-06
2.98578173698e-08
3.2662395932e-06
3.15393491963e-08
3.26077501703e-06
3.34871266975e-08
3.25500927645e-06
3.57347490097e-08
3.24890744504e-06
3.83212449187e-08
3.24243282903e-06
4.12920315846e-08
3.23554761992e-06
4.47002396055e-08
3.22821370067e-06
4.86080453296e-08
3.2203941901e-06
5.30883438816e-08
3.21205558583e-06
5.82264487957e-08
3.20317122717e-06
6.41221631001e-08
3.19372636511e-06
7.08917837851e-08
3.18372553961e-06
7.86700882094e-08
3.17320326952e-06
8.76119091008e-08
3.16223908657e-06
9.78928299773e-08
3.15097841589e-06
1.09708034347e-07
3.13966071393e-06
1.23267849226e-07
3.12865602839e-06
1.38787794913e-07
3.11850967752e-06
1.56469414249e-07
3.10999227119e-06
1.76467081178e-07
3.10414460646e-06
1.98833580346e-07
3.1022956511e-06
2.23436445795e-07
3.1060106525e-06
2.49838679132e-07
3.11689902644e-06
2.7714704845e-07
3.13618914811e-06
3.03858350363e-07
3.16399787485e-06
3.27788461585e-07
3.46256585031e-07
3.19840206662e-06
3.73773647936e-06
7.90197665101e-10
3.73725281515e-06
5.37474058187e-09
3.73580574712e-06
1.34397111894e-08
3.73309917048e-06
2.29583718782e-08
3.72915576893e-06
3.12469466227e-08
3.72427006589e-06
3.65052920138e-08
3.71884983909e-06
3.84522628038e-08
3.7132615123e-06
3.79496545213e-08
3.70774842635e-06
3.62261665164e-08
3.70242452118e-06
3.42820857364e-08
3.69731045248e-06
3.26711825068e-08
3.69237813156e-06
3.15611166684e-08
3.68758429453e-06
3.08951164817e-08
3.68288906037e-06
3.05366075137e-08
3.67826265386e-06
3.03537423701e-08
3.6736854747e-06
3.02519119205e-08
3.66914572103e-06
3.01755874649e-08
3.66463666197e-06
3.00979979326e-08
3.66015451539e-06
3.0009653368e-08
3.65569711761e-06
2.99096498461e-08
3.65126314195e-06
2.98000826817e-08
3.64685174769e-06
2.96836580218e-08
3.64246238323e-06
2.95621584972e-08
3.63809476494e-06
2.94364606799e-08
3.63374882254e-06
2.93065120695e-08
3.62942471905e-06
2.91716571276e-08
3.62512279327e-06
2.90308692224e-08
3.6208434887e-06
2.88830859041e-08
3.6165873034e-06
2.87275182853e-08
3.61235468958e-06
2.85636953863e-08
3.60814602574e-06
2.83918496162e-08
3.60396142176e-06
2.82126585724e-08
3.59980073302e-06
2.80276209155e-08
3.59566339733e-06
2.78389294018e-08
3.59154840102e-06
2.76495849147e-08
3.58745419627e-06
2.74633904826e-08
3.58337857361e-06
2.72848706477e-08
3.57931866495e-06
2.71194583702e-08
3.57527085922e-06
2.69733063286e-08
3.57123067261e-06
2.68533106383e-08
3.56719280088e-06
2.67671679529e-08
3.56315091883e-06
2.67232682277e-08
3.55909772299e-06
2.67307461025e-08
3.55502483716e-06
2.67994562801e-08
3.55092276584e-06
2.69399966383e-08
3.54678081702e-06
2.7163626907e-08
3.54258711182e-06
2.74824590897e-08
3.53832850657e-06
2.79093554065e-08
3.53399058534e-06
2.84581007204e-08
3.52955763704e-06
2.91434676009e-08
3.52501265424e-06
2.99814373345e-08
3.52033732245e-06
3.09893487295e-08
3.51551205924e-06
3.21861830163e-08
3.51051611232e-06
3.35929975408e-08
3.50532755877e-06
3.52331971784e-08
3.49992359741e-06
3.71331567898e-08
3.49428071572e-06
3.93226521544e-08
3.48837510213e-06
4.18355706644e-08
3.4821832441e-06
4.47106620095e-08
3.47568277436e-06
4.79922230563e-08
3.46885367146e-06
5.17310127909e-08
3.4616799901e-06
5.59851271456e-08
3.45415227796e-06
6.08209329653e-08
3.44627103677e-06
6.63138833168e-08
3.43805127655e-06
7.25492249038e-08
3.42952887293e-06
7.96223948805e-08
3.42076899592e-06
8.7638844719e-08
3.41187733869e-06
9.6712978019e-08
3.40301437791e-06
1.06965515173e-07
3.39441341733e-06
1.18518804906e-07
3.38640236062e-06
1.31488703176e-07
3.37942794462e-06
1.45971758028e-07
3.37408053587e-06
1.6202594773e-07
3.37111356712e-06
1.79642629902e-07
3.37144720836e-06
1.98707764267e-07
3.37613941507e-06
2.1895117892e-07
3.38629791402e-06
2.39886076172e-07
3.4029013903e-06
2.60748283608e-07
3.42650417139e-06
2.80458918927e-07
3.45683983012e-06
2.97654649816e-07
3.10848303534e-07
3.49244834005e-06
3.99959065398e-06
7.52929968549e-10
3.99922398793e-06
5.7420753028e-09
3.99796813433e-06
1.46966339105e-08
3.99548530627e-06
2.54428173826e-08
3.9917276987e-06
3.50067191944e-08
3.986926221e-06
4.13096326805e-08
3.98145885091e-06
4.39232036227e-08
3.97570051643e-06
4.37124025333e-08
3.96992815565e-06
4.20039582669e-08
3.96429625582e-06
3.99205262384e-08
3.95885978749e-06
3.81154709399e-08
3.95361313854e-06
3.68169764028e-08
3.94852423816e-06
3.59949393416e-08
3.94355618143e-06
3.55173320704e-08
3.93867756208e-06
3.52470755519e-08
3.93386520982e-06
3.50812256107e-08
3.9291034271e-06
3.49567564562e-08
3.92438205493e-06
3.48414346589e-08
3.91969461364e-06
3.4722098856e-08
3.91503689534e-06
3.45954673669e-08
3.91040616297e-06
3.44624041174e-08
3.90580050378e-06
3.43244950129e-08
3.9012186501e-06
3.41830541125e-08
3.89665977346e-06
3.40384656172e-08
3.89212339954e-06
3.38903393812e-08
3.8876093309e-06
3.37376685747e-08
3.88311757271e-06
3.35793027628e-08
3.87864824805e-06
3.34139884837e-08
3.87420146479e-06
3.32408912597e-08
3.86977732787e-06
3.30597299781e-08
3.86537572584e-06
3.28706604137e-08
3.86099633359e-06
3.26747304309e-08
3.8566384942e-06
3.24737350398e-08
3.85230114144e-06
3.22702206804e-08
3.84798275266e-06
3.20676411098e-08
3.84368125266e-06
3.1870294748e-08
3.83939402529e-06
3.16833178125e-08
3.83511778317e-06
3.15127033153e-08
3.83084860225e-06
3.13652598096e-08
3.82658179484e-06
3.12486143515e-08
3.82231195192e-06
3.11711899615e-08
3.81803280776e-06
3.11421716643e-08
3.81373728841e-06
3.11715384469e-08
3.80941743761e-06
3.12700020186e-08
3.80506435597e-06
3.14490078474e-08
3.80066827731e-06
3.17207996854e-08
3.79621847622e-06
3.20983302397e-08
3.79170335072e-06
3.25953978735e-08
3.78711035946e-06
3.32266431885e-08
3.78242618435e-06
3.40076695782e-08
3.77763669802e-06
3.49552286186e-08
3.77272712271e-06
3.60872560846e-08
3.76768224373e-06
3.74233035658e-08
3.76248646793e-06
3.89846472956e-08
3.75712427656e-06
4.07947158777e-08
3.751580523e-06
4.28794388818e-08
3.74584101511e-06
4.52676650819e-08
3.7398932743e-06
4.79916116899e-08
3.73372741073e-06
5.10873314394e-08
3.72733760087e-06
5.4595161674e-08
3.72072369432e-06
5.85601131777e-08
3.71389362562e-06
6.30322703859e-08
3.70686633262e-06
6.80668975697e-08
3.69967582657e-06
7.37244848343e-08
3.69237606782e-06
8.00702585523e-08
3.68504739124e-06
8.71733121423e-08
3.67780438183e-06
9.51048889221e-08
3.67080529453e-06
1.03935610047e-07
3.66426331794e-06
1.13731409715e-07
3.65845885448e-06
1.24547345484e-07
3.65375238615e-06
1.36419187838e-07
3.65059600679e-06
1.49351964613e-07
3.64954041956e-06
1.63304914957e-07
3.65123305846e-06
1.78172832558e-07
3.65639922762e-06
1.93763645743e-07
3.66579745877e-06
2.09774093319e-07
3.68013674993e-06
2.2576683302e-07
3.69994734236e-06
2.4115646825e-07
3.725406806e-06
2.55216878453e-07
3.75615011178e-06
2.67127222408e-07
2.76073508928e-07
3.7911390966e-06
4.27978415259e-06
6.71474230962e-10
4.27954188106e-06
5.98495408929e-09
4.27849690103e-06
1.57427653824e-08
4.27627297787e-06
2.76683990717e-08
4.27274968465e-06
3.85323342242e-08
4.26808727819e-06
4.59749846091e-08
4.26262556182e-06
4.93887344519e-08
4.25674144292e-06
4.96012163426e-08
4.25074247848e-06
4.80086634022e-08
4.24482408436e-06
4.58458542877e-08
4.23907791612e-06
4.38699375212e-08
4.23352390841e-06
4.23808459023e-08
4.22814381758e-06
4.13865490908e-08
4.22290575233e-06
4.07689419851e-08
4.21777781056e-06
4.03906620878e-08
4.21273383889e-06
4.0143223144e-08
4.20775445309e-06
3.99568051404e-08
4.20282602726e-06
3.97933824107e-08
4.19793925402e-06
3.96355083273e-08
4.19308779228e-06
3.94769303226e-08
4.18826727987e-06
3.93164958838e-08
4.18347470437e-06
3.91545345021e-08
4.17870795081e-06
3.89914007049e-08
4.17396559386e-06
3.88267674538e-08
4.16924666423e-06
3.86597977846e-08
4.16455058318e-06
3.84891335519e-08
4.15987691916e-06
3.8313303819e-08
4.15522542682e-06
3.81310559369e-08
4.15059580895e-06
3.79415240679e-08
4.14598765411e-06
3.77443769849e-08
4.14140041718e-06
3.75401491132e-08
4.13683325589e-06
3.73300172557e-08
4.13228495337e-06
3.71160628406e-08
4.1277539445e-06
3.69012901416e-08
4.12323820422e-06
3.66895581527e-08
4.11873519932e-06
3.64856009738e-08
4.11424193255e-06
3.6295075754e-08
4.10975482095e-06
3.61244672429e-08
4.10526976214e-06
3.59811334848e-08
4.10078203013e-06
3.58732483127e-08
4.09628633349e-06
3.5809837647e-08
4.09177673647e-06
3.58007009861e-08
4.08724669743e-06
3.58563850876e-08
4.08268902872e-06
3.59882397415e-08
4.0780959199e-06
3.62083149225e-08
4.07345896987e-06
3.6529403676e-08
4.06876924933e-06
3.69650441299e-08
4.06401731988e-06
3.75294795389e-08
4.05919330666e-06
3.82377311039e-08
4.0542871546e-06
3.91057249549e-08
4.04928856186e-06
4.01502212099e-08
4.04418747644e-06
4.13891447231e-08
4.03897413884e-06
4.28415726024e-08
4.03363953331e-06
4.45280597852e-08
4.02817593614e-06
4.64708156502e-08
4.02257739166e-06
4.86939096796e-08
4.01684057538e-06
5.12235836554e-08
4.01096581131e-06
5.4088463813e-08
4.00495825555e-06
5.73196783709e-08
3.99882961325e-06
6.09510571693e-08
3.99260013603e-06
6.50190923464e-08
3.98630110804e-06
6.95627680081e-08
3.97997809649e-06
7.46231630465e-08
3.97369463109e-06
8.0242712779e-08
3.96753685702e-06
8.646408944e-08
3.96161881931e-06
9.3328469512e-08
3.95608850869e-06
1.00873114099e-07
3.95113456161e-06
1.09128118338e-07
3.94699289472e-06
1.18112033192e-07
3.943953013e-06
1.27826370115e-07
3.94236262337e-06
1.38248712254e-07
3.94262890302e-06
1.49324590554e-07
3.94521424118e-06
1.60958108932e-07
3.95062305518e-06
1.73001942615e-07
3.95937628524e-06
1.85247572967e-07
3.97196926317e-06
1.97417331432e-07
3.98881033569e-06
2.09160881904e-07
4.01014066687e-06
2.20059969367e-07
4.03594375191e-06
2.29646213266e-07
4.06586473096e-06
2.37437065247e-07
2.42992023128e-07
4.09917537211e-06
4.57959836167e-06
5.48030237995e-10
4.57947828645e-06
6.1057696605e-09