/*--------------------------------*- C++ -*----------------------------------*\
| =========                 |                                                 |
| \\      /  F ield         | OpenFOAM: The Open Source CFD Toolbox           |
|  \\    /   O peration     | Version:  2112                                  |
|   \\  /    A nd           | Website:  www.openfoam.com                      |
|    \\/     M anipulation  |                                                 |
\*---------------------------------------------------------------------------*/
FoamFile
{
    version     2.0;
    format      ascii;
    arch        "LSB;label=32;scalar=64";
    class       volScalarField;
    location    "0.6";
    object      T;
}
// * * * * * * * * * * * * * * * * * * * * * * * * * * * * * * * * * * * * * //

dimensions      [0 0 0 1 0 0 0];

internalField   nonuniform List<scalar> 
12013
(
300.0000112
300.000035201
300.000063542
300.000098688
300.000143283
300.000200315
300.000273097
300.000365391
300.000481443
300.00062604
300.000804568
300.001023058
300.001288223
300.001607498
300.001989069
300.002441893
300.002975713
300.003601066
300.004329284
300.005172479
300.006143537
300.007256084
300.008524461
300.009963688
300.011589413
300.013417875
300.01546584
300.017750555
300.020289682
300.023101246
300.026203566
300.029615203
300.0333549
300.037441521
300.041894007
300.046731321
300.051972407
300.057636152
300.063741352
300.070306687
300.077350708
300.084891818
300.092948279
300.101538213
300.110679624
300.120390419
300.130688455
300.141591579
300.1531177
300.165284859
300.178111327
300.191615712
300.205817094
300.220735174
300.236390462
300.252804484
300.270000038
300.288001488
300.30683512
300.326529557
300.347116267
300.368630171
300.391110385
300.414601141
300.43915293
300.464823958
300.491682005
300.51980687
300.549293609
300.58025694
300.612837353
300.647209816
300.68359655
300.72228647
300.763666003
300.808270565
300.856876227
300.910676495
300.97165755
301.043487372
301.133886174
300.000011194
300.000035186
300.000063513
300.000098645
300.000143224
300.000200235
300.000272992
300.000365257
300.000481271
300.000625823
300.000804296
300.001022718
300.001287802
300.00160698
300.001988434
300.002441117
300.002974771
300.003599928
300.004327914
300.005170839
300.00614158
300.007253761
300.008521715
300.009960453
300.011585619
300.01341344
300.015460676
300.017744563
300.020282754
300.023093261
300.026194391
300.029604693
300.033342893
300.037427843
300.041878465
300.046713705
300.051952485
300.057613671
300.063716036
300.070278233
300.077318783
300.084856058
300.092908283
300.101493542
300.11062979
300.120334888
300.130626633
300.141522809
300.15304125
300.165199913
300.178016971
300.191510921
300.205700711
300.220605893
300.236246795
300.252644735
300.26982226
300.287803435
300.306614186
300.326282702
300.346839915
300.36832009
300.390761522
300.414207411
300.438706929
300.464316574
300.491101888
300.519139675
300.548520915
300.579354651
300.611773263
300.645939784
300.682058235
300.720388564
300.761268696
300.805147456
300.85263334
300.904561947
300.962062759
301.026485815
301.09849091
300.000011183
300.00003515
300.00006345
300.000098551
300.000143093
300.000200058
300.000272761
300.000364958
300.000480891
300.000625342
300.000803693
300.001021966
300.00128687
300.001605831
300.001987025
300.002439398
300.002972683
300.003597404
300.004324877
300.005167201
300.006137243
300.00724861
300.008515624
300.009953281
300.011577206
300.01340361
300.015449232
300.017731288
300.020267407
300.023075576
300.026174078
300.029581431
300.033316331
300.037397597
300.041844114
300.046674788
300.051908499
300.057564066
300.063660209
300.070215527
300.077248475
300.084777357
300.092820321
300.101395362
300.110520341
300.120213008
300.130491035
300.141372067
300.152873776
300.165013935
300.177810507
300.191281742
300.205446306
300.220323417
300.235933014
300.252295954
300.26943424
300.287371285
300.306132228
300.325744308
300.346237295
300.36764402
300.390000996
300.41334918
300.437734891
300.463210955
300.48983811
300.517686789
300.546839359
300.577392986
300.609463299
300.643189071
300.678738117
300.716314457
300.756166218
300.798591882
300.843936962
300.892558202
300.944694184
301.000092014
301.057073672
300.000011164
300.000035091
300.000063346
300.000098394
300.000142875
300.000199765
300.000272377
300.000364463
300.000480259
300.000624544
300.000802691
300.001020718
300.001285323
300.001603924
300.001984686
300.002436543
300.002969216
300.003593213
300.004319834
300.005161161
300.00613004
300.007240058
300.008505512
300.009941372
300.011563238
300.013387289
300.015430233
300.017709248
300.020241929
300.023046221
300.026140362
300.029542824
300.033272252
300.037347408
300.041787118
300.046610223
300.051835532
300.057481785
300.063567618
300.070111534
300.077131887
300.084646865
300.092674486
300.101232605
300.110338921
300.120011002
300.130266318
300.141122281
300.152596298
300.164705841
300.177468523
300.190902194
300.205025053
300.219855774
300.235413661
300.251718822
300.268792369
300.286656656
300.305335553
300.32485476
300.345242176
300.366528333
300.388746898
300.411935263
300.436135246
300.461393911
300.487764542
300.515307777
300.544092925
300.574199447
300.605718516
300.638754459
300.673425532
300.70986289
300.748205273
300.788584364
300.831090585
300.87569937
300.922123458
300.969548334
301.016253813
300.000011135
300.000035003
300.000063193
300.000098163
300.000142553
300.000199332
300.00027181
300.000363732
300.000479327
300.000623366
300.000801213
300.001018876
300.00128304
300.001601109
300.001981234
300.002432331
300.0029641
300.003587028
300.004312393
300.005152249
300.006119412
300.00722744
300.008490593
300.009923805
300.011542633
300.013363214
300.015402207
300.017676741
300.020204351
300.023002926
300.026090638
300.029485888
300.033207248
300.037273396
300.041703071
300.046515018
300.05172794
300.057360464
300.063431099
300.069958211
300.076960001
300.084454487
300.092459502
300.100992687
300.110071509
300.119713272
300.129935146
300.140754203
300.152187468
300.164251971
300.17696482
300.190343284
300.204404885
300.219167517
300.234649566
300.250870064
300.267848852
300.285606775
300.304165896
300.323549742
300.343783582
300.364894733
300.386912906
300.409870586
300.433803447
300.458750782
300.484755945
300.511866746
300.540135727
300.569620163
300.600381523
300.632483893
300.665990528
300.700956976
300.737418194
300.775365476
300.814707194
300.855206076
300.896387896
300.937431384
300.977096771
300.000011096
300.000034882
300.000062981
300.000097844
300.000142108
300.000198734
300.000271026
300.00036272
300.000478037
300.000621736
300.000799169
300.001016328
300.001279882
300.001597216
300.001976459
300.002426505
300.002957024
300.003578477
300.004302104
300.005139926
300.006104719
300.007209994
300.008469967
300.009899519
300.01151415
300.013329935
300.015363469
300.017631809
300.020152414
300.022943089
300.026021917
300.029407205
300.033117417
300.037171121
300.041586934
300.046383466
300.051579279
300.05719284
300.063242484
300.06974639
300.076722547
300.084188742
300.092162549
300.100661324
300.109702211
300.119302152
300.129477912
300.140246102
300.151623223
300.16362571
300.176269989
300.189572542
300.203549988
300.218219171
300.233597254
300.249701839
300.266551084
300.284163847
300.302559825
300.321759719
300.341785396
300.362660056
300.38440839
300.407056727
300.430633126
300.455167404
300.480691025
300.507236778
300.534838094
300.563527784
300.593335863
300.624285934
300.656389354
300.689636057
300.723980463
300.759320559
300.795468688
300.832114917
300.868789624
300.904841936
300.939465456
300.000011045
300.000034721
300.000062699
300.000097419
300.000141516
300.00019794
300.000269985
300.000361378
300.000476325
300.000619573
300.000796456
300.001012945
300.00127569
300.001592049
300.001970123
300.002418773
300.002947635
300.003567129
300.004288452
300.005123576
300.006085224
300.007186851
300.008442607
300.009867304
300.011476369
300.013285797
300.015312094
300.017572222
300.020083541
300.022863744
300.025930798
300.02930288
300.032998318
300.037035532
300.041432975
300.046209083
300.051382227
300.056970666
300.062992508
300.069465679
300.076407894
300.083836636
300.091769141
300.100222388
300.1092131
300.118757752
300.128872576
300.139573589
300.150876614
300.162797317
300.175351246
300.18855388
300.202420683
300.216967163
300.23220894
300.248161815
300.264841846
300.282265416
300.300449309
300.31941077
300.339167544
300.359737901
300.381140596
300.403394779
300.426519789
300.450534803
300.475458253
300.501306926
300.528094579
300.555829883
300.584513383
300.614133112
300.644658383
300.676031273
300.708155411
300.740882021
300.773994087
300.807191584
300.840084372
300.872202886
300.903036096
300.000010978
300.000034514
300.000062335
300.000096872
300.000140753
300.000196914
300.000268641
300.000359645
300.000474116
300.000616782
300.000792955
300.001008582
300.001270283
300.001585385
300.001961951
300.002408802
300.002935528
300.003552496
300.00427085
300.005102498
300.006060094
300.007157019
300.008407341
300.009825785
300.011427682
300.01322892
300.015245896
300.01749545
300.01999481
300.02276153
300.025813425
300.029168507
300.032844928
300.036860916
300.041234718
300.045984545
300.051128524
300.056684647
300.062670731
300.069104384
300.07600297
300.083383583
300.091263031
300.099657819
300.10858414
300.118057875
300.128094593
300.138709564
300.149917768
300.161733917
300.174172474
300.187247682
300.200973589
300.21536408
300.230432904
300.2461937
300.262660013
300.279845306
300.297762946
300.316426167
300.335847999
300.35604114
300.377017751
300.398789152
300.421365376
300.444754526
300.468961875
300.493988611
300.519830121
300.546473666
300.573895289
300.602055776
300.630895537
300.660328402
300.690234622
300.720453846
300.750779474
300.780956606
300.810686971
300.839644955
300.867505728
300.000010893
300.000034251
300.000061874
300.000096181
300.000139788
300.000195619
300.000266944
300.000357456
300.000471326
300.000613256
300.000788533
300.001003072
300.001263455
300.00157697
300.001951633
300.002396213
300.002920244
300.003534027
300.004248635
300.005075898
300.006028384
300.007119379
300.008362851
300.00977341
300.011366269
300.013157186
300.015162413
300.017398641
300.019882934
300.022632666
300.025665463
300.028999132
300.032651603
300.036640863
300.040984901
300.045701648
300.050808923
300.056324388
300.062265497
300.068649461
300.075493209
300.082813356
300.090626181
300.098947603
300.107793165
300.117178025
300.127116943
300.137624282
300.148714004
300.160399674
300.172694457
300.185611126
300.199162058
300.213359232
300.228214218
300.243738158
300.259941726
300.276835075
300.294427752
300.312728568
300.331745428
300.351485079
300.37195278
300.393151843
300.415083034
300.43774377
300.461127086
300.485220292
300.510003272
300.53544637
300.561507816
300.588130703
300.615239591
300.642736955
300.670499943
300.698378204
300.726193875
300.753744834
300.780812299
300.807173686
300.832619846
300.000010788
300.000033925
300.000061302
300.000095321
300.000138588
300.000194009
300.000264834
300.000354736
300.000467859
300.000608876
300.00078304
300.000996226
300.001254974
300.001566518
300.00193882
300.002380582
300.002901268
300.003511099
300.00422106
300.005042883
300.005989031
300.007072674
300.008307652
300.009708438
300.011290094
300.013068218
300.015058889
300.017278607
300.019744233
300.022472926
300.025482074
300.028789231
300.032412055
300.036368238
300.040675451
300.045351278
300.050413168
300.055878375
300.061763911
300.068086505
300.074862557
300.082108104
300.089838785
300.098069817
300.106815965
300.116091523
300.125910292
300.136285565
300.147230108
300.158756146
300.17087534
300.18359877
300.196936901
300.210899554
300.225495852
300.240734163
300.256622008
300.273165955
300.290371467
300.308242712
300.326782306
300.345990996
300.365867239
300.386406681
300.407601501
300.429439593
300.451903573
300.474969581
300.498605864
300.522771167
300.547412957
300.572465586
300.597848554
300.623465125
300.649201635
300.674927995
300.700499916
300.725763297
300.75056082
300.774740575
300.798165803
300.000010659
300.000033525
300.000060599
300.000094266
300.000137116
300.000192033
300.000262247
300.0003514
300.000463607
300.000603505
300.000776305
300.000987835
300.001244578
300.00155371
300.001923119
300.002361432
300.002878022
300.003483016
300.00418729
300.005002458
300.005940853
300.007015503
300.008240093
300.009628929
300.01119689
300.012959379
300.01493226
300.017131806
300.019574632
300.022277629
300.025257903
300.028532699
300.032119344
300.036035175
300.040297477
300.044923421
300.049930004
300.055333994
300.061151875
300.067399798
300.074093537
300.08124844
300.088879396
300.097000792
300.105626484
300.114769761
300.124443313
300.134659202
300.145428828
300.156762894
300.168671367
300.181163436
300.194247454
300.207930876
300.22222018
300.237120767
300.252636837
300.26877124
300.285525281
300.302898487
300.320888317
300.339489809
300.358695143
300.378493134
300.398868613
300.419801716
300.441267066
300.463232862
300.485659896
300.508500541
300.531697781
300.555184411
300.578882531
300.602703539
300.626548811
300.650311272
300.673878046
300.697134236
300.719967658
300.742274147
300.763962858
300.000010503
300.000033039
300.000059745
300.000092985
300.00013533
300.000189636
300.000259107
300.000347353
300.00045845
300.000596992
300.00076814
300.000977662
300.001231978
300.001538187
300.001904095
300.002338232
300.002849866
300.003449007
300.004146401
300.004953519
300.005882539
300.006946315
300.008158349
300.009532744
300.011084159
300.01282776
300.014779158
300.01695435
300.019369655
300.022041648
300.02498709
300.028222863
300.031765896
300.035633102
300.039841311
300.044407199
300.049347234
300.054677607
300.060414181
300.066572432
300.0731674
300.080213636
300.087725156
300.095715398
300.104197174
300.113182631
300.122683203
300.132709572
300.143271616
300.154378361
300.166037921
300.178257438
300.191043007
300.204399584
300.21833089
300.232839281
300.247925609
300.26358904
300.279826855
300.296634194
300.314003775
300.33192555
300.350386321
300.369369294
300.388853587
300.408813694
300.429218914
300.450032786
300.471212537
300.492708627
300.514464432
300.536416157
300.558493088
300.580618259
300.602709635
300.624681848
300.64644848
300.667924839
300.68903102
300.709695011
300.7298555
300.000010314
300.000032454
300.000058718
300.000091445
300.000133181
300.000186754
300.000255333
300.000342489
300.000452254
300.000589169
300.000758334
300.000965449
300.001216854
300.001519558
300.001881268
300.002310399
300.002816095
300.003408224
300.004097378
300.004894858
300.005812653
300.006863417
300.008060427
300.009417547
300.010949176
300.012670197
300.01459592
300.016742015
300.019124452
300.021759428
300.024663301
300.027852521
300.031343552
300.035152808
300.039296584
300.043790981
300.048651845
300.053894704
300.059534699
300.065586531
300.072064398
300.07898194
300.086352188
300.094187506
300.10249954
300.111299167
300.120596439
300.130400525
300.140719659
300.151561066
300.162930899
300.17483416
300.187274605
300.200254653
300.213775262
300.227835801
300.242433895
300.257565252
300.27322346
300.289399765
300.306082813
300.323258367
300.340909009
300.359013804
300.377547973
300.396482553
300.415784094
300.435414398
300.455330344
300.475483834
300.495821912
300.51628709
300.536817942
300.557349989
300.57781689
300.59815192
300.618289688
300.63816799
300.657729682
300.676924419
300.695710093
300.000010089
300.000031757
300.000057493
300.000089608
300.000130619
300.000183318
300.000250835
300.000336694
300.000444874
300.000579852
300.000746658
300.00095091
300.001198853
300.001497393
300.001854113
300.002277299
300.002775942
300.003359746
300.004039119
300.004825161
300.005729643
300.006764975
300.007944174
300.009280821
300.010789008
300.012483289
300.014378616
300.016490279
300.018833835
300.021425045
300.024279794
300.027414027
300.03084367
300.03458456
300.038652371
300.043062544
300.047830215
300.052970148
300.058496668
300.064423596
300.070764185
300.077531059
300.08473615
300.09239064
300.1005049
300.109088429
300.118149792
300.127696553
300.137735211
300.148271125
300.159308434
300.170849976
300.182897187
300.195450002
300.208506738
300.222063965
300.236116365
300.250656575
300.265675017
300.281159717
300.297096109
300.313466837
300.33025155
300.347426712
300.364965426
300.382837292
300.401008318
300.419440908
300.438093934
300.456922944
300.475880498
300.494916669
300.513979718
300.533016929
300.551975606
300.570804182
300.589453393
300.60787745
300.626035129
300.643890702
300.66141465
300.000009822
300.000030931
300.000056042
300.000087433
300.000127587
300.000179253
300.000245514
300.000329841
300.000436148
300.000568841
300.000732863
300.000933737
300.001177599
300.001471228
300.001822068
300.002238248
300.002728584
300.003302585
300.003970446
300.00474303
300.00563185
300.006649037
300.007807302
300.009119895
300.010600552
300.012263441
300.014123103
300.016194382
300.018492363
300.021032297
300.023829528
300.026899421
300.030257283
300.033918291
300.037897415
300.042209346
300.046868416
300.051888536
300.057283115
300.063065
300.069246399
300.075838821
300.082853006
300.090298861
300.098185396
300.106520651
300.115311636
300.124564258
300.134283247
300.144472085
300.155132919
300.166266482
300.177871999
300.189947089
300.202487662
300.21548781
300.228939688
300.242833393
300.257156841
300.271895643
300.287032979
300.302549494
300.318423197
300.334629392
300.351140643
300.367926785
300.38495499
300.402189911
300.419593903
300.437127342
300.454749038
300.472416753
300.490087808
300.507719768
300.52527119
300.542702385
300.559976182
300.577058623
300.593919573
300.610533198
300.626878283
300.000009508
300.00002996
300.000054335
300.000084877
300.000124022
300.000174476
300.000239264
300.000321795
300.000425907
300.000555921
300.000716683
300.000913602
300.001152686
300.00144057
300.001784535
300.002192524
300.002673152
300.003235701
300.003890118
300.004646993
300.00551754
300.006513565
300.007647426
300.008931991
300.010380585
300.012006934
300.013825103
300.015849429
300.018094453
300.020574845
300.023305334
300.026300625
300.029575326
300.033143872
300.037020443
300.041218889
300.045752654
300.050634702
300.055877441
300.061492652
300.067491417
300.073884048
300.080680017
300.08788789
300.095515257
300.103568661
300.112053531
300.120974113
300.130333395
300.140133038
300.150373297
300.161052946
300.172169197
300.183717619
300.19569206
300.208084555
300.220885255
300.234082341
300.247661957
300.261608146
300.275902801
300.29052564
300.305454196
300.320663848
300.336127889
300.351817633
300.367702579
300.383750634
300.399928389
300.416201458
300.43253488
300.448893563
300.465242778
300.481548662
300.497778744
300.513902437
300.529891504
300.545720455
300.561366863
300.576811589
300.592038904
300.000009142
300.000028825
300.000052342
300.00008189
300.000119861
300.000168901
300.000231974
300.000312412
300.000413969
300.000540867
300.000697838
300.000890161
300.001123696
300.001404908
300.001740891
300.002139377
300.002608746
300.003158021
300.003796861
300.004535543
300.005384939
300.006356479
300.007462121
300.008714294
300.010125855
300.011710025
300.013480329
300.015450529
300.01763455
300.020046411
300.022700144
300.025609718
300.028788963
300.032251487
300.036010596
300.040079222
300.044469834
300.049194372
300.054264164
300.059689855
300.06548133
300.071647648
300.078196967
300.085136476
300.092472326
300.100209564
300.108352065
300.116902468
300.125862107
300.135230948
300.145007525
300.155188879
300.165770491
300.176746231
300.188108299
300.199847175
300.211951581
300.224408443
300.237202876
300.250318175
300.263735832
300.277435571
300.291395412
300.305591766
300.319999562
300.334592409
300.349342801
300.364222357
300.379202093
300.394252739
300.409345067
300.424450248
300.439540215
300.454588019
300.469568171
300.484456947
300.499232663
300.513875887
300.528369589
300.542699235
300.556852808
300.000008716
300.000027507
300.000050028
300.000078426
300.000115034
300.000162437
300.000223524
300.000301543
300.000400148
300.000523448
300.000676043
300.000863063
300.001090197
300.00136372
300.001690507
300.002078052
300.002534464
300.00306847
300.003689402
300.004407181
300.005232286
300.006175728
300.007249003
300.008464048
300.009833191
300.011369083
300.013084644
300.01499299
300.017107359
300.019441043
300.022007304
300.024819298
300.027889998
300.031232109
300.034857989
300.038779574
300.043008291
300.047554988
300.052429854
300.057642344
300.063201109
300.069113921
300.075387609
300.082027988
300.089039798
300.096426637
300.104190903
300.11233374
300.120854974
300.129753069
300.139025077
300.148666591
300.15867171
300.169033004
300.179741491
300.190786622
300.202156275
300.213836764
300.225812865
300.238067852
300.250583562
300.263340475
300.276317819
300.2894937
300.302845259
300.316348847
300.329980232
300.343714822
300.357527907
300.371394913
300.38529166
300.399194625
300.413081192
300.426929884
300.440720578
300.454434687
300.468055301
300.481567294
300.494957388
300.508214176
300.521328096
300.000008225
300.000025987
300.00004736
300.000074431
300.000109472
300.000154993
300.000213798
300.000289039
300.000384257
300.000503431
300.000651011
300.000831958
300.001051767
300.001316494
300.00163277
300.002007813
300.00244943
300.002966011
300.003566521
300.004260475
300.005057915
300.005969374
300.007005837
300.008178688
300.009499659
300.010980774
300.012634277
300.014472569
300.016508133
300.01875346
300.021220971
300.023922939
300.026871406
300.030078108
300.03355439
300.037311132
300.041358663
300.045706692
300.050364232
300.055339521
300.060639962
300.066272046
300.072241294
300.078552192
300.085208134
300.092211368
300.099562945
300.107262673
300.115309076
300.123699358
300.132429371
300.141493597
300.150885129
300.160595666
300.170615516
300.180933612
300.191537538
300.202413571
300.213546736
300.224920879
300.236518755
300.248322133
300.260311921
300.272468305
300.284770906
300.297198947
300.309731441
300.322347376
300.335025912
300.347746578
300.36048946
300.373235388
300.385966099
300.398664393
300.411314252
300.423900949
300.436411117
300.448832797
300.461155451
300.473369953
300.485468552
300.000007662
300.000024245
300.000044302
300.000069857
300.000103106
300.000146477
300.000202679
300.000274753
300.000366114
300.000480591
300.000622469
300.000796514
300.001008005
300.00126275
300.001567105
300.00192798
300.002352841
300.002849703
300.003427115
300.004094145
300.004860344
300.005735718
300.006730678
300.007855999
300.009122761
300.01054229
300.012126093
300.01388579
300.015833041
300.017979472
300.020336597
300.022915742
300.025727961
300.028783964
300.032094034
300.035667948
300.039514906
300.043643456
300.048061418
300.052775822
300.057792837
300.063117715
300.068754727
300.074707115
300.08097704
300.087565539
300.094472486
300.101696562
300.109235227
300.117084702
300.125239957
300.133694713
300.142441442
300.151471388
300.160774594
300.170339941
300.180155195
300.190207074
300.200481324
300.210962804
300.221635592
300.232483093
300.24348817
300.254633271
300.265900574
300.277272135
300.288730037
300.300256542
300.311834235
300.323446169
300.335075995
300.346708084
300.358327632
300.369920747
300.381474522
300.392977089
300.404417647
300.415786477
300.427074939
300.438275452
300.449381456
300.000007022
300.000022263
300.000040824
300.000064655
300.00009587
300.000136804
300.000190058
300.00025855
300.000345551
300.000454727
300.000590172
300.000756438
300.00095856
300.001202072
300.001493022
300.001837978
300.002244026
300.002718764
300.003270287
300.003907162
300.004638404
300.005473434
300.00642204
300.007494328
300.008700667
300.010051626
300.011557915
300.013230313
300.015079598
300.017116474
300.019351493
300.021794983
300.024456966
300.027347085
300.030474529
300.033847956
300.037475421
300.041364313
300.045521279
300.049952172
300.054661985
300.059654798
300.064933734
300.070500908
300.076357398
300.082503203
300.088937227
300.095657257
300.102659952
300.109940842
300.117494336
300.125313734
300.133391253
300.141718062
300.150284325
300.159079258
300.168091187
300.177307631
300.186715378
300.196300584
300.206048871
300.215945433
300.225975154
300.236122723
300.246372757
300.256709915
300.267119026
300.277585194
300.288093915
300.298631172
300.309183527
300.319738203
300.330283143
300.340807072
300.351299524
300.361750875
300.372152349
300.382496012
300.392774763
300.402982302
300.413113099
300.000006297
300.000020022
300.000036894
300.000058781
300.000087705
300.000125898
300.000175841
300.000240314
300.000322429
300.000425669
300.000553919
300.000711494
300.000903157
300.001134141
300.001410154
300.001737386
300.002122509
300.002572662
300.003095441
300.00369887
300.004391375
300.005181747
300.006079099
300.007092813
300.008232494
300.009507903
300.010928898
300.012505366
300.014247156
300.016164004
300.018265459
300.020560817
300.02305904
300.025768686
300.028697838
300.031854037
300.035244212
300.03887462
300.042750784
300.046877442
300.051258495
300.055896958
300.060794932
300.065953558
300.071373001
300.077052425
300.082989985
300.089182819
300.095627054
300.102317816
300.109249253
300.116414562
300.123806026
300.131415062
300.139232274
300.147247517
300.155449964
300.163828188
300.172370243
300.181063751
300.189895998
300.198854028
300.207924743
300.217094995
300.226351686
300.235681859
300.245072789
300.254512058
300.263987639
300.273487956
300.283001944
300.2925191
300.302029518
300.311523916
300.320993662
300.330430775
300.339827931
300.349178454
300.358476301
300.367716043
300.376892836
300.000005485
300.000017509
300.000032489
300.000052201
300.000078566
300.000113701
300.000159957
300.000219959
300.000296647
300.000393302
300.000513581
300.000661536
300.000841636
300.001058782
300.001318314
300.001626011
300.001988093
300.002411204
300.002902399
300.003469118
300.004119155
300.004860625
300.005701918
300.00665165
300.007718614
300.008911719
300.010239931
300.011712206
300.013337426
300.01512433
300.017081444
300.019217013
300.021538931
300.024054674
300.026771238
300.029695069
300.032832014
300.036187255
300.039765264
300.043569758
300.047603654
300.051869037
300.05636713
300.061098274
300.066061912
300.07125658
300.076679908
300.082328628
300.088198585
300.094284765
300.100581322
300.107081613
300.113778248
300.120663139
300.127727557
300.134962198
300.14235725
300.149902467
300.157587246
300.165400706
300.173331767
300.181369233
300.189501871
300.197718488
300.206008007
300.214359538
300.222762441
300.231206388
300.239681417
300.248177971
300.256686945
300.265199708
300.273708129
300.282204591
300.290682
300.299133779
300.307553871
300.31593672
300.324277259
300.332570891
300.340813503
300.000004581
300.000014715
300.000027592
300.000044891
300.000068423
300.000100178
300.000142364
300.000197443
300.000268162
300.000357585
300.00046912
300.000606537
300.000773987
300.000976013
300.001217555
300.001503956
300.001840947
300.002234646
300.00269153
300.003218417
300.003822435
300.004510982
300.005291688
300.006172368
300.007160969
300.008265514
300.009494049
300.010854576
300.012354992
300.014003027
300.015806177
300.017771644
300.019906268
300.02221647
300.024708193
300.027386847
300.030257257
300.033323615
300.03658944
300.040057539
300.043729979
300.047608059
300.051692291
300.055982391
300.060477274
300.065175051
300.070073045
300.075167799
300.080455108
300.08593004
300.091586976
300.097419652
300.103421207
300.109584231
300.11590083
300.122362676
300.128961082
300.135687058
300.142531384
300.149484671
300.156537435
300.163680152
300.170903331
300.178197562
300.18555358
300.192962312
300.20041492
300.207902847
300.215417848
300.222952021
300.230497828
300.238048115
300.245596125
300.253135504
300.260660305
300.268164985
300.275644402
300.283093807
300.290508827
300.297885609
300.305220658
300.000003584
300.000011633
300.000022197
300.000036845
300.000057269
300.000085326
300.000123068
300.000172779
300.000237003
300.000318571
300.000420623
300.000546628
300.000700397
300.000886092
300.001108233
300.001371694
300.001681697
300.002043798
300.002463872
300.002948087
300.00350287
300.00413488
300.004850959
300.005658096
300.00656337
300.007573905
300.008696811
300.009939129
300.011307774
300.012809473
300.01445071
300.016237668
300.018176173
300.020271637
300.022529015
300.024952751
300.027546736
300.030314275
300.033258047
300.03638008
300.039681731
300.043163667
300.046825857
300.050667565
300.054687359
300.058883116
300.063252037
300.06779067
300.072494939
300.077360171
300.082381139
300.087552103
300.092866853
300.098318761
300.103900834
300.109605764
300.115425986
300.121353737
300.127381103
300.133500083
300.139702636
300.145980738
300.152326422
300.158731833
300.165189259
300.171691179
300.178230286
300.184799522
300.191392099
300.19800152
300.204621589
300.211246427
300.217870478
300.224488505
300.231095597
300.237687159
300.244258912
300.250806894
300.257327602
300.263817676
300.270273983
300.000002495
300.00000827
300.000016312
300.000028076
300.000045128
300.000069181
300.000102124
300.000146052
300.000203293
300.000276431
300.000368325
300.000482126
300.000621288
300.000789575
300.000991066
300.001230146
300.001511506
300.001840126
300.002221253
300.002660385
300.003163236
300.003735704
300.004383835
300.005113778
300.005931744
300.006843951
300.007856584
300.008975735
300.010207353
300.011557194
300.013030767
300.014633283
300.016369611
300.018244225
300.02026117
300.022424016
300.024735827
300.02719913
300.029815892
300.0325875
300.035514742
300.038597806
300.041836273
300.045229121
300.048774734
300.052470915
300.056314907
300.060303413
300.064432633
300.068698288
300.073095661
300.077619637
300.082264744
300.087025196
300.091894941
300.096867703
300.101937035
300.107096356
300.112339002
300.117658267
300.123047443
300.128499861
300.134008923
300.139568138
300.145171149
300.15081176
300.15648396
300.162181939