/*--------------------------------*- C++ -*----------------------------------*\
| =========                 |                                                 |
| \\      /  F ield         | OpenFOAM: The Open Source CFD Toolbox           |
|  \\    /   O peration     | Version:  2112                                  |
|   \\  /    A nd           | Website:  www.openfoam.com                      |
|    \\/     M anipulation  |                                                 |
\*---------------------------------------------------------------------------*/
FoamFile
{
    version     2.0;
    format      ascii;
    arch        "LSB;label=32;scalar=64";
    class       volVectorField;
    location    "0.6";
    object      U;
}
// * * * * * * * * * * * * * * * * * * * * * * * * * * * * * * * * * * * * * //

dimensions      [0 1 -1 0 0 0 0];

internalField   nonuniform List<vector> 
12013
(
(0.100000260398 5.98768718806e-07 0)
(0.0999870881592 2.90549104317e-06 0)
(0.099940378885 6.82752856635e-06 0)
(0.0998484303454 1.13526851899e-05 0)
(0.0997138971536 1.5185019239e-05 0)
(0.0995510860254 1.74943746047e-05 0)
(0.0993777896438 1.82126486893e-05 0)
(0.0992078977105 1.78280479111e-05 0)
(0.0990484109852 1.69820603697e-05 0)
(0.0989003750261 1.61705691993e-05 0)
(0.098761483777 1.56421964025e-05 0)
(0.0986284753441 1.54431618632e-05 0)
(0.0984985463932 1.55090681073e-05 0)
(0.0983698416205 1.57441908084e-05 0)
(0.0982413909825 1.6065225621e-05 0)
(0.0981128399269 1.64165900613e-05 0)
(0.097984178886 1.67678086235e-05 0)
(0.097855548301 1.7106208522e-05 0)
(0.0977271252096 1.74301219015e-05 0)
(0.0975990706301 1.774158016e-05 0)
(0.0974715119636 1.80437623176e-05 0)
(0.0973445448919 1.8340610592e-05 0)
(0.0972182416277 1.86338413488e-05 0)
(0.0970926592258 1.89251427031e-05 0)
(0.0969678473217 1.92146941532e-05 0)
(0.0968438535035 1.95021840022e-05 0)
(0.096720727172 1.97865610468e-05 0)
(0.0965985227852 2.00667709492e-05 0)
(0.0964773005083 2.03417392598e-05 0)
(0.0963571247054 2.06103043164e-05 0)
(0.0962380609439 2.08716193035e-05 0)
(0.0961201737271 2.11252746048e-05 0)
(0.0960035243862 2.13717853147e-05 0)
(0.0958881674725 2.16117606299e-05 0)
(0.0957741470987 2.18473434355e-05 0)
(0.0956614918915 2.20815560666e-05 0)
(0.0955502102024 2.23175313737e-05 0)
(0.0954402865657 2.25608940223e-05 0)
(0.0953316782335 2.28180269492e-05 0)
(0.0952243102581 2.3096699519e-05 0)
(0.0951180700128 2.34061311065e-05 0)
(0.0950128035232 2.37567269365e-05 0)
(0.0949083122019 2.41615563617e-05 0)
(0.0948043488569 2.46344056645e-05 0)
(0.0947006143948 2.5192343103e-05 0)
(0.0945967519969 2.58528090587e-05 0)
(0.0944923427661 2.66377724341e-05 0)
(0.0943869018021 2.75700349161e-05 0)
(0.094279872912 2.86767442905e-05 0)
(0.0941706222875 2.99881446035e-05 0)
(0.0940584294735 3.15384370696e-05 0)
(0.0939424790851 3.33677325394e-05 0)
(0.0938218500912 3.55218587568e-05 0)
(0.0936955006324 3.80539049034e-05 0)
(0.0935622498419 4.10267853799e-05 0)
(0.0934207540807 4.45150033642e-05 0)
(0.0932694797742 4.86082200696e-05 0)
(0.0931066663566 5.34128182012e-05 0)
(0.0929302800044 5.90612397969e-05 0)
(0.0927379544957 6.57129671987e-05 0)
(0.0925269162485 7.35686769576e-05 0)
(0.0922938900235 8.28768771268e-05 0)
(0.0920349725198 9.39525543306e-05 0)
(0.0917454690029 0.000107197824396 0)
(0.0914196781708 0.000123131449678 0)
(0.091050602263 0.000142431800426 0)
(0.0906295518539 0.000165997992151 0)
(0.0901456012065 0.000195040243285 0)
(0.0895848230078 0.000231214129053 0)
(0.0889291965565 0.000276826529692 0)
(0.0881550202435 0.000335153419039 0)
(0.0872305641664 0.000410946212237 0)
(0.086112530318 0.000511243465173 0)
(0.084740611553 0.000646710726682 0)
(0.0830291114498 0.000833886989006 0)
(0.080854222011 0.00109899928367 0)
(0.0780325987849 0.00148460813983 0)
(0.0742747935785 0.00206333977038 0)
(0.0691311890826 0.00298121585475 0)
(0.0620741340214 0.00464569921371 0)
(0.0541484718509 0.00889049444704 0)
(0.100000535811 1.79648637512e-06 0)
(0.0999879251739 8.85336397392e-06 0)
(0.0999421659356 2.08684174098e-05 0)
(0.0998513916824 3.47488238465e-05 0)
(0.0997180493773 4.65203418752e-05 0)
(0.0995562465246 5.36294439126e-05 0)
(0.0993836623303 5.58596938636e-05 0)
(0.0992141763691 5.47024800774e-05 0)
(0.099054852751 5.21231353389e-05 0)
(0.0989068295659 4.96415024844e-05 0)
(0.0987678875575 4.80226946072e-05 0)
(0.0986348282018 4.74098730228e-05 0)
(0.0985048847086 4.76075681438e-05 0)
(0.0983762164662 4.83236479363e-05 0)
(0.0982478537031 4.93042920652e-05 0)
(0.098119434403 5.03782560753e-05 0)
(0.0979909385623 5.14527920932e-05 0)
(0.0978624966049 5.24896467898e-05 0)
(0.0977342766914 5.34815990293e-05 0)
(0.09760643238 5.4435995935e-05 0)
(0.097479085754 5.53635292758e-05 0)
(0.0973523281615 5.6274133308e-05 0)
(0.0972262284738 5.71746584642e-05 0)
(0.0971008413427 5.80690184901e-05 0)
(0.0969762141059 5.89587535536e-05 0)
(0.0968523922931 5.98425608804e-05 0)
(0.0967294234652 6.07174488956e-05 0)
(0.0966073604365 6.1579616049e-05 0)
(0.0964862615708 6.24256855174e-05 0)
(0.0963661893727 6.3252390417e-05 0)
(0.0962472075183 6.40575037152e-05 0)
(0.096129378428 6.48401338957e-05 0)
(0.0960127609882 6.56005290407e-05 0)
(0.0958974075879 6.63418927508e-05 0)
(0.0957833604556 6.70704111417e-05 0)
(0.095670645611 6.77945982769e-05 0)
(0.0955592693741 6.85262887788e-05 0)
(0.095449214647 6.92803034818e-05 0)
(0.0953404370315 7.00769973001e-05 0)
(0.0952328604256 7.09400922497e-05 0)
(0.0951263711099 7.18982882626e-05 0)
(0.0950208148334 7.29840407788e-05 0)
(0.0949159930513 7.42360465908e-05 0)
(0.094811659585 7.56969267686e-05 0)
(0.0947075167154 7.74182723419e-05 0)
(0.0946032101634 7.94558719583e-05 0)
(0.0944983243252 8.18736847152e-05 0)
(0.0943923784441 8.47435441089e-05 0)
(0.0942848223585 8.81477552387e-05 0)
(0.0941750288617 9.21785342106e-05 0)
(0.0940622864539 9.69418906265e-05 0)
(0.0939457906837 0.000102557966149 0)
(0.0938246335692 0.000109167205651 0)
(0.0936977901647 0.000116932112005 0)
(0.093564100489 0.000126044554168 0)
(0.0934222472308 0.000136730543796 0)
(0.093270729284 0.000149260818479 0)
(0.0931078291108 0.000163961949771 0)
(0.0929315672323 0.000181231891924 0)
(0.0927396479888 0.000201556903528 0)
(0.092529390962 0.000225539580352 0)
(0.0922976434021 0.000253931689062 0)
(0.0920406680726 0.000287680947762 0)
(0.0917539947295 0.000327993030271 0)
(0.0914322315526 0.000376419567727 0)
(0.0910688142704 0.000434981165299 0)
(0.0906556700401 0.000506344710815 0)
(0.0901827658723 0.000594077961255 0)
(0.0896374937536 0.000703029667389 0)
(0.0890038241479 0.000839897916901 0)
(0.0882611321459 0.00101409701944 0)
(0.0873825618374 0.00123909553829 0)
(0.0863327503362 0.00153450774842 0)
(0.0850646990033 0.00192938624043 0)
(0.0835157056444 0.00246740274027 0)
(0.0816028495813 0.00321479657739 0)
(0.0792182756742 0.00427173841578 0)
(0.0762208267114 0.00578747909467 0)
(0.0724545955925 0.00797952697024 0)
(0.0679752123748 0.0110964079777 0)
(0.0640537788608 0.0149872097794 0)
(0.100000749811 2.95081783039e-06 0)
(0.0999890207975 1.49877049352e-05 0)
(0.0999450641342 3.55426356658e-05 0)
(0.0998568467203 5.93609464366e-05 0)
(0.0997263487097 7.96330558727e-05 0)
(0.099567104978 9.19540211549e-05 0)
(0.0993963935639 9.59149338925e-05 0)
(0.0992279855986 9.40422929276e-05 0)
(0.0990690783708 8.96919277772e-05 0)
(0.0989210557797 8.54699992348e-05 0)
(0.0987819405177 8.26982466111e-05 0)
(0.0986487097411 8.16340073094e-05 0)
(0.0985186940728 8.1952269093e-05 0)
(0.098390087709 8.3159038242e-05 0)
(0.0982619165951 8.48226320769e-05 0)
(0.0981337963723 8.66505266016e-05 0)
(0.0980056799467 8.84844349162e-05 0)
(0.0978776721466 9.02578961378e-05 0)
(0.0977499204523 9.19576510551e-05 0)
(0.0976225627282 9.35955081594e-05 0)
(0.0974957089105 9.51897059786e-05 0)
(0.0973694417552 9.67564718126e-05 0)
(0.0972438236409 9.83076359481e-05 0)
(0.097118904191 9.98498630909e-05 0)
(0.0969947267226 0.000101385054192 0)
(0.0968713331338 0.000102911151419 0)
(0.0967487677922 0.000104423404382 0)
(0.0966270802493 0.000105915305718 0)
(0.0965063253504 0.000107380687475 0)
(0.096386561712 0.00010881424243 0)
(0.0962678491768 0.000110212438755 0)
(0.0961502458311 0.000111573793509 0)
(0.0960338062854 0.000112898777719 0)
(0.0959185784793 0.000114194155967 0)
(0.0958045993928 0.000115469123857 0)
(0.0956918905678 0.000116738690118 0)
(0.0955804535591 0.000118023922039 0)
(0.0954702671238 0.000119350483277 0)
(0.0953612834441 0.000120752736045 0)
(0.095253422908 0.000122271311421 0)
(0.0951465696626 0.000123954769538 0)
(0.095040568431 0.000125860270017 0)
(0.0949352203976 0.000128052174542 0)
(0.0948302808031 0.000130605695267 0)
(0.0947254547964 0.000133606660506 0)
(0.0946203914985 0.000137151733978 0)
(0.0945146815915 0.000141349102565 0)
(0.0944078528494 0.000146322642814 0)
(0.0942993647766 0.000152211276545 0)
(0.0941886036017 0.000159173172242 0)
(0.0940748738036 0.000167387583983 0)
(0.0939573910918 0.000177059899743 0)
(0.0938352728557 0.000188427331099 0)
(0.0937075246454 0.000201766595393 0)
(0.0935730246649 0.000217401059543 0)
(0.0934305029944 0.000235712676912 0)
(0.0932785195516 0.000257157686601 0)
(0.0931154328218 0.000282286003887 0)
(0.0929393609567 0.000311762823942 0)
(0.0927481346689 0.000346401920214 0)
(0.0925392387517 0.000387205468994 0)
(0.0923097388852 0.000435420911957 0)
(0.0920561880358 0.000492611423068 0)
(0.0917745092297 0.000560754795397 0)
(0.091459848325 0.000642380139393 0)
(0.0911063871956 0.000740755004042 0)
(0.0907071034663 0.00086014918325 0)
(0.090253467212 0.00100621087317 0)
(0.0897350580255 0.00118650858428 0)
(0.0891390887832 0.00141131813603 0)
(0.0884498310155 0.00169477574977 0)
(0.0876479683396 0.00205656571065 0)
(0.0867099776838 0.00252438660471 0)
(0.0856078002896 0.00313746652018 0)
(0.0843094870164 0.00395134639 0)
(0.0827824069884 0.00504358757801 0)
(0.0810015528318 0.00651813703216 0)
(0.0789657623766 0.00850206417651 0)
(0.0767398450215 0.0111200033039 0)
(0.0745825901391 0.0143737692062 0)
(0.0731800820225 0.0176651361252 0)
(0.100000924344 4.01779695576e-06 0)
(0.099990401172 2.11719479555e-05 0)
(0.0999491660382 5.06031682671e-05 0)
(0.0998650182225 8.48708518921e-05 0)
(0.0997391900575 0.000114213340505 0)
(0.0995842360682 0.000132245936842 0)
(0.0994167137951 0.000138287498072 0)
(0.0992501708741 0.000135885833723 0)
(0.0990920071925 0.000129821791694 0)
(0.0989440153982 0.000123840870099 0)
(0.0988046285261 0.000119866957978 0)
(0.0986711235931 0.000118302359643 0)
(0.098540997189 0.00011870749311 0)
(0.0984125024597 0.000120389535742 0)
(0.0982846583564 0.00012273667825 0)
(0.0981570433078 0.000125332859229 0)
(0.0980295649703 0.000127949471058 0)
(0.0979022866391 0.000130489187288 0)
(0.0977753223886 0.000132931975174 0)
(0.0976487846066 0.000135292060141 0)
(0.0975227648906 0.000137593815373 0)
(0.097397332695 0.000139860784793 0)
(0.0972725407619 0.000142108712359 0)
(0.097148431272 0.00014434647577 0)
(0.0970250415568 0.000146576495411 0)
(0.0969024087239 0.000148795806356 0)
(0.0967805725233 0.000150997707946 0)
(0.0966595777877 0.000153173102613 0)
(0.0965394743517 0.000155313203625 0)
(0.0964203154792 0.000157410877959 0)
(0.0963021551125 0.000159460906167 0)
(0.0961850450597 0.000161461175525 0)
(0.0960690337821 0.000163414356327 0)
(0.0959541619173 0.000165329037274 0)
(0.0958404590469 0.000167219501262 0)
(0.0957279398916 0.000169107668971 0)
(0.0956165991954 0.000171023192467 0)
(0.0955064095052 0.000173004906594 0)
(0.0953973172737 0.000175101063142 0)
(0.0952892383119 0.000177370611696 0)
(0.0951820539884 0.00017988299246 0)
(0.0950756072144 0.000182719840323 0)
(0.0949696996934 0.000185974071705 0)
(0.0948640891624 0.000189754033517 0)
(0.0947584846338 0.000194181530453 0)
(0.0946525424975 0.000199394433998 0)
(0.094545863553 0.000205548922654 0)
(0.0944379884136 0.000212820367459 0)
(0.0943283936492 0.000221407805178 0)
(0.0942164860617 0.00023153616373 0)
(0.0941015963583 0.000243459932241 0)
(0.0939829724696 0.000257471566729 0)
(0.0938597709304 0.000273907308077 0)
(0.0937310456326 0.000293157812633 0)
(0.093595733869 0.000315678657366 0)
(0.0934526403704 0.000342007551427 0)
(0.0933004175745 0.000372784769242 0)
(0.0931375404223 0.000408777224675 0)
(0.0929622750059 0.000450910527534 0)
(0.0927726424279 0.000500310385627 0)
(0.0925663744094 0.000558357839858 0)
(0.0923408588438 0.000626759090539 0)
(0.0920930744705 0.000707637484491 0)
(0.0918195134982 0.000803657977637 0)
(0.0915160908805 0.000918193976917 0)
(0.0911780376435 0.00105555368667 0)
(0.0907997825149 0.00122128783509 0)
(0.0903748273348 0.0014226177425 0)
(0.0898956309027 0.00166902509629 0)
(0.0893535368574 0.00197306994169 0)
(0.088738809628 0.00235151327733 0)
(0.0880409141162 0.00282683676026 0)
(0.0872492770383 0.00342921667102 0)
(0.0863549659433 0.00419888394824 0)
(0.0853540569868 0.00518842937056 0)
(0.0842539492821 0.00646358902502 0)
(0.0830842140491 0.00809868250095 0)
(0.0819129270942 0.0101585357573 0)
(0.0808697408872 0.0126516585871 0)
(0.0801711285158 0.0154175887065 0)
(0.0800836054126 0.0178819520366 0)
(0.100001077575 4.95594953109e-06 0)
(0.0999920704178 2.72309034805e-05 0)
(0.0999544719661 6.5722226969e-05 0)
(0.0998759327226 0.000110844161686 0)
(0.099756661587 0.000149822481024 0)
(0.0996078210766 0.00017416782686 0)
(0.0994449148094 0.000182802279515 0)
(0.0992811346369 0.00018022190099 0)
(0.0991241394875 0.000172625781114 0)
(0.0989762880735 0.000164935569099 0)
(0.0988365928557 0.000159731349636 0)
(0.0987027590757 0.000157605005772 0)
(0.0985725228852 0.000158034152527 0)
(0.0984442250984 0.000160143342823 0)
(0.0983168783519 0.000163145557383 0)
(0.0981900103862 0.000166500510098 0)
(0.0980634665696 0.000169905449 0)
(0.0979372531172 0.000173229749972 0)
(0.0978114378177 0.000176441873652 0)
(0.0976860982287 0.000179557460024 0)
(0.0975613011361 0.000182605881666 0)
(0.0974370981741 0.000185615280441 0)
(0.0973135288597 0.000188605896984 0)
(0.0971906261056 0.000191587609815 0)
(0.0970684199095 0.000194563894213 0)
(0.0969469409921 0.00019753011161 0)
(0.0968262232992 0.000200477176235 0)
(0.0967063057174 0.000203394106788 0)
(0.0965872319534 0.000206269399534 0)
(0.0964690482664 0.000209094025219 0)
(0.0963518011283 0.000211861712716 0)
(0.0962355346357 0.000214570650707 0)
(0.0961202885269 0.000217225347622 0)
(0.0960060944018 0.000219836795506 0)
(0.0958929725713 0.000222425654144 0)
(0.0957809284489 0.00022502082606 0)
(0.0956699483269 0.000227662104495 0)
(0.0955599967674 0.000230400802712 0)
(0.0954510134169 0.000233300905246 0)
(0.0953429087774 0.000236440113877 0)
(0.0952355606931 0.000239909945549 0)
(0.0951288111544 0.000243816395925 0)
(0.0950224632772 0.000248283040336 0)
(0.0949162787786 0.000253450527127 0)
(0.0948099740356 0.00025947837008 0)
(0.0947032166656 0.000266547136155 0)
(0.0945956222502 0.000274860270408 0)
(0.0944867513181 0.000284646907975 0)
(0.094376105147 0.000296165987873 0)
(0.0942631210264 0.000309709055745 0)
(0.0941471676131 0.000325607161526 0)
(0.0940275391884 0.000344237799651 0)
(0.0939034485281 0.000366035808364 0)
(0.0937740177517 0.000391502520076 0)
(0.0936382685173 0.00042122229818 0)
(0.0934951095167 0.000455882036322 0)
(0.0933433220918 0.000496294804699 0)
(0.093181541576 0.000543430028715 0)
(0.093008236651 0.000598450885899 0)
(0.0928216861093 0.000662763900532 0)
(0.0926199516692 0.000738081047031 0)
(0.0924008471648 0.000826498517266 0)
(0.0921619065093 0.000930600448953 0)
(0.0919003518269 0.00105359296602 0)
(0.0916130650525 0.0011994802486 0)
(0.0912965699392 0.00137329482314 0)
(0.0909470363684 0.00158140203294 0)
(0.0905603293424 0.00183190016486 0)
(0.0901321353286 0.00213514414691 0)
(0.0896582242518 0.00250441875486 0)
(0.0891349412748 0.00295678127602 0)
(0.0885600791843 0.00351405819332 0)
(0.0879343547916 0.00420388188646 0)
(0.0872638196528 0.00506045630679 0)
(0.08656362676 0.00612427981716 0)
(0.085863561299 0.00743917002349 0)
(0.0852153029952 0.00904330743174 0)
(0.0846998394376 0.0109487147545 0)
(0.0844302121567 0.0131015909163 0)
(0.0845358774833 0.0153159544883 0)
(0.0850906619559 0.017191570904 0)
(0.100001220237 5.71111271304e-06 0)
(0.0999939973415 3.29595095844e-05 0)
(0.0999608586811 8.05124536503e-05 0)
(0.0998893552979 0.000136757434334 0)
(0.0997784396962 0.000185918128181 0)
(0.0996375071593 0.000217282337531 0)
(0.0994806842843 0.000229202422492 0)
(0.0993206601883 0.000226984115125 0)
(0.0991653818584 0.000218185981875 0)
(0.0990179053878 0.000208922987291 0)
(0.0988779745917 0.000202488602482 0)
(0.0987438448687 0.000199729734593 0)
(0.0986135671878 0.000200089835794 0)
(0.0984856026915 0.000202541146491 0)
(0.0983589631301 0.00020613623222 0)
(0.0982331168351 0.000210211497289 0)
(0.0981078331053 0.000214389259749 0)
(0.0979830472456 0.000218500476966 0)
(0.0978587696078 0.000222498088466 0)
(0.0977350346131 0.000226395455562 0)
(0.0976118776008 0.000230224409604 0)
(0.0974893284523 0.000234016076131 0)
(0.097367410965 0.000237793165247 0)
(0.0972461465376 0.000241567873129 0)
(0.0971255563726 0.000245341835219 0)
(0.0970056635414 0.000249109637283 0)
(0.0968864955764 0.000252859734353 0)
(0.0967680844428 0.000256578672845 0)
(0.0966504662204 0.000260253241417 0)
(0.0965336792887 0.00026387264173 0)
(0.0964177612507 0.000267430006377 0)
(0.0963027466401 0.000270924752971 0)
(0.0961886649196 0.000274362889187 0)
(0.0960755370327 0.000277760172769 0)
(0.0959633723924 0.000281142823218 0)
(0.0958521656504 0.000284548322935 0)
(0.0957418931513 0.000288026939639 0)
(0.0956325106082 0.000291643319987 0)
(0.095523950222 0.000295478074096 0)
(0.0954161170623 0.000299627521567 0)
(0.0953088858525 0.000304205301154 0)
(0.0952020988318 0.000309343722952 0)
(0.0950955627183 0.00031519545683 0)
(0.0949890459693 0.000321934973422 0)
(0.0948822763931 0.00032975911367 0)
(0.0947749375941 0.000338890665927 0)
(0.0946666667568 0.000349580397532 0)
(0.0945570517 0.000362110655336 0)
(0.0944456277087 0.000376798168647 0)
(0.0943318741285 0.000394000571271 0)
(0.094215210837 0.000414122126117 0)
(0.0940949945532 0.000437622885641 0)
(0.0939705129197 0.000465029420244 0)
(0.0938409787711 0.00049694766638 0)
(0.0937055247418 0.00053408032411 0)
(0.0935631948579 0.000577248723577 0)
(0.0934129364145 0.000627419644623 0)
(0.0932535904932 0.000685736760019 0)
(0.0930838818537 0.000753563094033 0)
(0.0929024109708 0.000832532653664 0)
(0.0927076449665 0.000924614502806 0)
(0.0924979133926 0.00103219261401 0)
(0.0922714103351 0.00115816799994 0)
(0.0920262067616 0.00130608735751 0)
(0.0917602824068 0.00148030375271 0)
(0.0914715861841 0.00168617839375 0)
(0.09115814441 0.00193033381855 0)
(0.0908182422522 0.00222096438772 0)
(0.0904507154353 0.00256820715643 0)
(0.0900554097291 0.00298456744089 0)
(0.0896338864457 0.00348536485564 0)
(0.0891904771052 0.00408911393966 0)
(0.088733814949 0.00481765026242 0)
(0.0882789656403 0.00569562881092 0)
(0.0878502077814 0.00674869473272 0)
(0.0874842527096 0.00799911861832 0)
(0.0872330641951 0.00945700480864 0)
(0.0871641174163 0.0111046950976 0)
(0.0873537021736 0.0128728444161 0)
(0.0878650755816 0.0146112698177 0)
(0.0886987796682 0.0160725034661 0)
(0.100001355815 6.2227012556e-06 0)
(0.0999961074277 3.81411959274e-05 0)
(0.099968060702 9.45563221859e-05 0)
(0.0999047519997 0.000162033364484 0)
(0.0998037245097 0.000221882984663 0)
(0.0996723139428 0.000261067472243 0)
(0.0995229894685 0.00027714968177 0)
(0.0993677804974 0.00027603644234 0)
(0.0992149085546 0.000266530577961 0)
(0.0990682099997 0.000255933095965 0)
(0.0989282761075 0.000248310279769 0)
(0.0987940147133 0.000244845060294 0)
(0.0986638606108 0.000245015976437 0)
(0.0985364327122 0.000247688708493 0)
(0.098410753911 0.000251777788746 0)
(0.0982862312359 0.000256504852986 0)
(0.0981625502728 0.000261415802474 0)
(0.0980395658176 0.000266297633111 0)
(0.097917222239 0.000271084267577 0)
(0.097795504072 0.000275780539009 0)
(0.097674410671 0.000280417602134 0)
(0.0975539463611 0.000285027362303 0)
(0.0974341171862 0.000289632936208 0)
(0.0973149311894 0.000294246526974 0)
(0.0971963995462 0.000298868868955 0)
(0.0970785374345 0.000303492420794 0)
(0.0969613643208 0.000308103602562 0)
(0.0968449047369 0.000312686798668 0)
(0.0967291866087 0.000317226921627 0)
(0.0966142388226 0.000321712448962 0)
(0.0965000893162 0.000326136203295 0)
(0.0963867617889 0.000330499380318 0)
(0.0962742741587 0.000334811268804 0)
(0.0961626356814 0.000339092364898 0)
(0.0960518436539 0.000343375645912 0)
(0.0959418811186 0.000347707487237 0)
(0.0958327138435 0.000352149772106 0)
(0.0957242886815 0.000356781206856 0)
(0.0956165305316 0.000361698187336 0)
(0.095509339507 0.00036701673264 0)
(0.0954025893007 0.000372872243843 0)
(0.0952961243124 0.00037942343376 0)
(0.0951897575319 0.000386851459186 0)
(0.0950832683471 0.00039536330729 0)
(0.0949764004383 0.000405192900973 0)
(0.0948688599732 0.000416603657711 0)
(0.0947603128527 0.000429891800504 0)
(0.0946503827549 0.000445389531714 0)
(0.0945386496492 0.000463469564917 0)
(0.0944246474845 0.000484550311436 0)
(0.0943078617266 0.000509104023992 0)
(0.0941877277655 0.000537665974196 0)
(0.0940636280739 0.000570844675998 0)
(0.093934889417 0.000609337230891 0)
(0.0938007814604 0.00065394821608 0)
(0.09366051467 0.000705610111161 0)
(0.0935132380239 0.000765412532107 0)
(0.0933580384474 0.000834633323512 0)
(0.0931939441947 0.000914780705765 0)
(0.0930199297029 0.00100764282846 0)
(0.0928349257803 0.00111534706046 0)
(0.0926378391278 0.00124043375387 0)
(0.0924275855573 0.0013859441501 0)
(0.0922031403298 0.0015555268932 0)
(0.0919636151726 0.00175356538289 0)
(0.0917083766424 0.0019853248004 0)
(0.0914372197136 0.00225712386655 0)
(0.0911506190697 0.00257651839395 0)
(0.0908500882629 0.00295248984167 0)
(0.0905386846124 0.00339560450263 0)
(0.0902217001806 0.00391808715662 0)
(0.0899075814488 0.00453370736213 0)
(0.0896090980266 0.00525729924024 0)
(0.0893447305013 0.00610362436855 0)
(0.0891401195492 0.00708513113171 0)
(0.0890291599272 0.0082079777103 0)
(0.0890538756808 0.00946559547085 0)
(0.0892615094466 0.0108293365883 0)
(0.0896963994545 0.0122370508704 0)
(0.0903835793773 0.0135836473338 0)
(0.091302606559 0.0147240018794 0)
(0.100001481888 6.43547929565e-06 0)
(0.0999982855049 4.25720439464e-05 0)
(0.0999756801692 0.000107449142427 0)
(0.0999213073611 0.000186093145938 0)
(0.0998312600697 0.000257072761759 0)
(0.0997106481472 0.000304946239583 0)
(0.0995700764682 0.000326231583441 0)
(0.0994207582731 0.00032716068813 0)
(0.0992711241098 0.000317610310819 0)
(0.0991258056208 0.000306029846763 0)
(0.0989863006142 0.000297315390356 0)
(0.098852238939 0.000293079239612 0)
(0.0987224974184 0.000292922053794 0)
(0.098595890089 0.000295664641979 0)
(0.0984714715954 0.00030011616104 0)
(0.0983485955271 0.000305397007481 0)
(0.0982268632841 0.000310977119127 0)
(0.0981060465654 0.000316595683982 0)
(0.0979860195496 0.000322160139789 0)
(0.0978667128631 0.000327662565878 0)
(0.0977480868272 0.00033312767585 0)
(0.0976301179735 0.000338585408935 0)
(0.0975127928084 0.000344057008012 0)
(0.0973961053827 0.000349552722031 0)
(0.0972800559432 0.000355071680805 0)
(0.0971646503969 0.000360603867093 0)
(0.0970499004677 0.000366133369053 0)
(0.0969358221376 0.000371642857106 0)
(0.0968224341939 0.000377115929716 0)
(0.0967097556838 0.000382540257393 0)
(0.0965978036799 0.000387910662806 0)
(0.0964865906321 0.00039322988341 0)
(0.0963761220709 0.000398511818214 0)
(0.0962663947276 0.000403782427911 0)
(0.0961573936691 0.000409082224811 0)
(0.0960490905553 0.000414467523481 0)
(0.0959414410721 0.000420011771711 0)
(0.0958343832751 0.000425808062395 0)
(0.0957278364398 0.000431968805466 0)
(0.0956216979171 0.00043862878174 0)
(0.0955158423449 0.000445945745413 0)
(0.0954101195621 0.000454102210782 0)
(0.0953043525122 0.000463307426945 0)
(0.0951983365822 0.000473798737757 0)
(0.0950918374928 0.000485844881309 0)
(0.0949845900066 0.000499747031682 0)
(0.0948762969061 0.000515843020083 0)
(0.0947666276931 0.000534510475095 0)
(0.0946552175817 0.000556171991893 0)
(0.0945416673544 0.000581299870347 0)
(0.0944255431649 0.000610424996903 0)
(0.0943063757946 0.000644145553079 0)
(0.0941836607831 0.000683137309335 0)
(0.0940568609046 0.000728170281183 0)
(0.0939254072627 0.000780125038896 0)
(0.0937887028427 0.000840014661119 0)
(0.0936461281979 0.000909009540414 0)
(0.0934970488813 0.000988468602222 0)
(0.0933408293081 0.00107997716772 0)
(0.0931768508615 0.00118538698996 0)
(0.0930045380625 0.00130686840064 0)
(0.0928233976219 0.00144696725086 0)
(0.0926330722419 0.00160867240209 0)
(0.0924334174837 0.00179548740782 0)
(0.0922246059992 0.00201151213399 0)
(0.0920072717217 0.00226152544179 0)
(0.0917827039323 0.00255106244289 0)
(0.0915531059282 0.00288647520542 0)
(0.0913219335926 0.00327495265579 0)
(0.0910943248773 0.00372446888472 0)
(0.0908776327636 0.00424359892671 0)
(0.0906820493638 0.00484112525664 0)
(0.0905212841715 0.00552531304386 0)
(0.0904131984156 0.00630269185748 0)
(0.0903801969051 0.00717613830708 0)
(0.0904490244417 0.00814204904263 0)
(0.0906493967697 0.00918650365947 0)
(0.0910106663346 0.0102806728353 0)
(0.0915555945865 0.011376569033 0)
(0.0922906467981 0.012405684685 0)
(0.0931941229373 0.0132848963995 0)
(0.100001591735 6.30857503633e-06 0)
(0.100000390178 4.60877590977e-05 0)
(0.0999832335232 0.000118847903863 0)
(0.0999380158206 0.000208421733566 0)
(0.0998594662727 0.000290880744847 0)
(0.0997504579822 0.000348334538362 0)
(0.0996196262266 0.000375981172732 0)
(0.0994772247226 0.000380052660727 0)
(0.0993317740344 0.000371277581327 0)
(0.0991886367089 0.000359182634411 0)
(0.0990502076203 0.000349541421385 0)
(0.0989168634567 0.000344496173879 0)
(0.0987879609474 0.00034387007317 0)
(0.0986625463111 0.000346511477371 0)
(0.0985397331922 0.000351169925216 0)
(0.0984188394485 0.000356881977952 0)
(0.0982993925579 0.000363045915952 0)
(0.098181085007 0.000369349977793 0)
(0.0980637223572 0.000375667953171 0)
(0.0979471812347 0.000381972777744 0)
(0.0978313824154 0.000388278270752 0)
(0.0977162740154 0.000394607422721 0)
(0.0976018221264 0.000400977395209 0)
(0.0974880061638 0.000407394798452 0)
(0.0973748151467 0.000413855433571 0)
(0.0972622456874 0.000420346382439 0)
(0.0971503004421 0.000426850220632 0)
(0.09703898677 0.000433346878055 0)
(0.0969283136941 0.000439819885798 0)
(0.0968182900987 0.000446257750741 0)
(0.0967089218815 0.00045265671823 0)
(0.0966002093177 0.000459023162975 0)
(0.0964921460027 0.000465376087428 0)
(0.0963847163624 0.00047174784926 0)
(0.0962778939405 0.000478187362478 0)
(0.0961716395858 0.000484761290581 0)
(0.0960659003005 0.000491554676923 0)
(0.0959606079652 0.000498674410315 0)
(0.0958556779713 0.000506248960931 0)
(0.0957510081119 0.000514430651914 0)
(0.0956464774612 0.00052339782271 0)
(0.0955419451772 0.000533355412563 0)
(0.0954372493946 0.000544537882043 0)
(0.095332206777 0.000557210497822 0)
(0.0952266112217 0.000571672113593 0)
(0.0951202337993 0.000588257249298 0)
(0.0950128223298 0.00060733966803 0)
(0.0949041012636 0.000629335419588 0)
(0.0947937721026 0.00065470777705 0)
(0.0946815147776 0.000683972652985 0)
(0.0945669890461 0.000717706777711 0)
(0.0944498355104 0.000756553659698 0)
(0.0943296806115 0.00080123759554 0)
(0.0942061402517 0.000852575381184 0)
(0.0940788257998 0.000911492148017 0)
(0.0939473530785 0.000979041191685 0)
(0.0938113528302 0.00105642438507 0)
(0.0936704880271 0.00114501914646 0)
(0.0935244734412 0.00124640756063 0)
(0.0933731040781 0.00136240735599 0)
(0.0932162934436 0.00149510815443 0)
(0.0930541230218 0.00164691009801 0)
(0.0928869080718 0.00182056175523 0)
(0.0927152827189 0.00201919821707 0)
(0.0925403115898 0.00224637150767 0)
(0.0923636293827 0.00250607134387 0)
(0.0921876181081 0.00280272183065 0)
(0.0920156226823 0.00314114294592 0)
(0.0918522105443 0.00352645591699 0)
(0.0917034690574 0.00396390334148 0)
(0.0915773251062 0.00445854803657 0)
(0.0914838637049 0.00501480298952 0)
(0.0914355825588 0.00563573343601 0)
(0.0914474900255 0.00632207500392 0)
(0.0915368973551 0.00707091376972 0)
(0.091722694067 0.00787403096796 0)
(0.0920238313497 0.00871602059599 0)
(0.0924567279017 0.00957252170548 0)
(0.0930314114271 0.0104092769738 0)
(0.0937465444267 0.0111831980639 0)
(0.0945845946275 0.0118468993833 0)
(0.10000167742 5.82262997492e-06 0)
(0.100002279902 4.85886543859e-05 0)
(0.0999902311642 0.000128519566192 0)
(0.099953838389 0.000228632815739 0)
(0.0998866746118 0.000322804900062 0)
(0.0997895252205 0.000390694914433 0)
(0.0996690662835 0.000425909781525 0)
(0.0995344790327 0.000434329487804 0)
(0.0993942112552 0.000427273209027 0)
(0.0992542162545 0.000415242881578 0)
(0.0991177030442 0.000404920394481 0)
(0.0989857697605 0.000399074029083 0)
(0.0988582657334 0.000397856142743 0)
(0.0987344995987 0.000400226571288 0)
(0.098613676846 0.000404925349055 0)
(0.0984951060672 0.000410931895955 0)
(0.0983782602276 0.000417579822172 0)
(0.0982627651683 0.00042450409119 0)
(0.0981483647898 0.000431540094017 0)
(0.0980348862658 0.000438634392419 0)
(0.0979222125665 0.000445784996329 0)
(0.0978102643924 0.00045300302857 0)
(0.0976989882284 0.000460298797187 0)
(0.0975883488382 0.000467672745124 0)
(0.097478323791 0.000475116788326 0)
(0.0973689001916 0.000482614273839 0)
(0.0972600715951 0.000490145295751 0)
(0.0971518358132 0.00049768917597 0)
(0.097044192707 0.000505229240137 0)
(0.096937140083 0.000512755580416 0)
(0.0968306725885 0.000520267242517 0)
(0.096724779646 0.00052777495435 0)
(0.0966194428419 0.000535303352762 0)
(0.0965146354537 0.000542892377944 0)
(0.0964103212817 0.000550599716464 0)
(0.0963064526067 0.000558501833856 0)
(0.0962029702255 0.000566696024703 0)
(0.0960998025465 0.000575301555374 0)
(0.095996865036 0.000584461589147 0)
(0.0958940597457 0.000594344808969 0)
(0.095791274666 0.000605147374654 0)
(0.095688383326 0.000617094113137 0)
(0.0955852443181 0.000630440581645 0)
(0.0954817015901 0.000645475558912 0)
(0.0953775840792 0.000662522452879 0)