/*--------------------------------*- C++ -*----------------------------------*\
| =========                 |                                                 |
| \\      /  F ield         | OpenFOAM: The Open Source CFD Toolbox           |
|  \\    /   O peration     | Version:  2112                                  |
|   \\  /    A nd           | Website:  www.openfoam.com                      |
|    \\/     M anipulation  |                                                 |
\*---------------------------------------------------------------------------*/
FoamFile
{
    version     2.0;
    format      ascii;
    arch        "LSB;label=32;scalar=64";
    class       volVectorField;
    location    "2";
    object      flux;
}
// * * * * * * * * * * * * * * * * * * * * * * * * * * * * * * * * * * * * * //

dimensions      [0 1 -1 1 0 0 0];

internalField   nonuniform List<vector> 
512
(
(0.0167742 -24.4548 0)
(0.0479114 -24.3194 0)
(0.0727171 -24.0684 0)
(0.0893567 -23.7336 0)
(0.0979853 -23.3495 0)
(0.0999755 -22.9464 0)
(0.0971156 -22.5473 0)
(0.091071 -22.1679 0)
(0.0831805 -21.8178 0)
(0.0744017 -21.502 0)
(0.0653663 -21.2224 0)
(0.0564591 -20.9791 0)
(0.0478885 -20.7709 0)
(0.0397413 -20.5962 0)
(0.0320219 -20.4532 0)
(0.0246801 -20.3402 0)
(0.0176288 -20.2559 0)
(0.0107579 -20.1992 0)
(0.0039464 -20.1698 0)
(-0.00292523 -20.1676 0)
(-0.00995839 -20.1931 0)
(-0.0172126 -20.2472 0)
(-0.0246711 -20.3307 0)
(-0.0321926 -20.4445 0)
(-0.0394493 -20.5884 0)
(-0.0458568 -20.7605 0)
(-0.0505195 -20.9561 0)
(-0.0522397 -21.1662 0)
(-0.0496704 -21.3762 0)
(-0.0416971 -21.5662 0)
(-0.0280514 -21.7126 0)
(-0.00992598 -21.7929 0)
(0.0509272 -24.4884 0)
(0.14532 -24.348 0)
(0.220197 -24.089 0)
(0.270076 -23.7456 0)
(0.29562 -23.3539 0)
(0.301145 -22.945 0)
(0.292147 -22.5419 0)
(0.273681 -22.1601 0)
(0.24977 -21.8087 0)
(0.223275 -21.4924 0)
(0.196072 -21.2129 0)
(0.169298 -20.9698 0)
(0.143565 -20.762 0)
(0.119121 -20.5877 0)
(0.0959756 -20.4451 0)
(0.0739715 -20.3324 0)
(0.0528444 -20.2483 0)
(0.0322616 -20.1918 0)
(0.0118566 -20.1624 0)
(-0.00873336 -20.1601 0)
(-0.0298184 -20.1854 0)
(-0.0515857 -20.2392 0)
(-0.0739968 -20.3225 0)
(-0.0966439 -20.4364 0)
(-0.118561 -20.5807 0)
(-0.138007 -20.754 0)
(-0.152295 -20.9519 0)
(-0.157793 -21.1655 0)
(-0.150364 -21.3806 0)
(-0.126512 -21.5765 0)
(-0.0852764 -21.7286 0)
(-0.0302107 -21.8124 0)
(0.0869515 -24.5567 0)
(0.247613 -24.406 0)
(0.373937 -24.1303 0)
(0.456889 -23.7693 0)
(0.498273 -23.3623 0)
(0.505963 -22.9418 0)
(0.48956 -22.5309 0)
(0.45767 -22.1443 0)
(0.417024 -21.7905 0)
(0.372342 -21.4733 0)
(0.326686 -21.1937 0)
(0.281893 -20.9512 0)
(0.238932 -20.7442 0)
(0.19819 -20.5708 0)
(0.159656 -20.429 0)
(0.123055 -20.317 0)
(0.0879338 -20.2333 0)
(0.0537294 -20.177 0)
(0.0198202 -20.1476 0)
(-0.014412 -20.145 0)
(-0.0495035 -20.1698 0)
(-0.0857946 -20.2231 0)
(-0.123262 -20.3061 0)
(-0.161277 -20.4199 0)
(-0.19829 -20.5651 0)
(-0.23145 -20.7408 0)
(-0.256273 -20.9431 0)
(-0.266585 -21.1639 0)
(-0.255172 -21.3891 0)
(-0.215679 -21.5972 0)
(-0.145964 -21.7609 0)
(-0.0518365 -21.8522 0)
(0.126297 -24.6624 0)
(0.358499 -24.4948 0)
(0.538538 -24.1928 0)
(0.654114 -23.8041 0)
(0.709369 -23.3737 0)
(0.716834 -22.9358 0)
(0.690867 -22.5134 0)
(0.643879 -22.12 0)
(0.585317 -21.7627 0)
(0.521679 -21.4442 0)
(0.457111 -21.1648 0)
(0.394053 -20.9232 0)
(0.333769 -20.7174 0)
(0.27673 -20.5454 0)
(0.222874 -20.4048 0)
(0.171786 -20.2938 0)
(0.12281 -20.2109 0)
(0.0751372 -20.1549 0)
(0.0278761 -20.1254 0)
(-0.0198663 -20.1224 0)
(-0.0688813 -20.1466 0)
(-0.119705 -20.199 0)
(-0.172387 -20.2813 0)
(-0.226161 -20.395 0)
(-0.278986 -20.5413 0)
(-0.326984 -20.7202 0)
(-0.363888 -20.929 0)
(-0.380819 -21.1607 0)
(-0.367011 -21.4013 0)
(-0.312414 -21.6284 0)
(-0.21276 -21.8108 0)
(-0.0758478 -21.9143 0)
(0.170759 -24.8097 0)
(0.482434 -24.6169 0)
(0.719277 -24.2766 0)
(0.866448 -23.8491 0)
(0.932439 -23.3865 0)
(0.936107 -22.9256 0)
(0.897463 -22.4882 0)
(0.833022 -22.0862 0)
(0.75492 -21.7247 0)
(0.671289 -21.4049 0)
(0.587196 -21.1259 0)
(0.505556 -20.8857 0)
(0.427828 -20.6818 0)
(0.354504 -20.5116 0)
(0.285428 -20.3727 0)
(0.220015 -20.2631 0)
(0.157383 -20.1811 0)
(0.0964613 -20.1256 0)
(0.0360686 -20.0961 0)
(-0.0249895 -20.0925 0)
(-0.0877971 -20.1156 0)
(-0.153143 -20.1669 0)
(-0.221236 -20.248 0)
(-0.291283 -20.3613 0)
(-0.360894 -20.5087 0)
(-0.425299 -20.6915 0)
(-0.476509 -20.9086 0)
(-0.502754 -21.1545 0)
(-0.489067 -21.4163 0)
(-0.420429 -21.6703 0)
(-0.288871 -21.8799 0)
(-0.10355 -22.0016 0)
(0.222707 -25.005 0)
(0.62509 -24.7756 0)
(0.922462 -24.3818 0)
(1.09912 -23.9024 0)
(1.17112 -23.3987 0)
(1.16601 -22.9091 0)
(1.11055 -22.4538 0)
(1.02563 -22.0419 0)
(0.925957 -21.6758 0)
(0.821063 -21.355 0)
(0.716714 -21.0769 0)
(0.616125 -20.8387 0)
(0.520829 -20.6372 0)
(0.431255 -20.4694 0)
(0.347103 -20.3328 0)
(0.26758 -20.2249 0)
(0.191557 -20.1442 0)
(0.117678 -20.0893 0)
(0.0444478 -20.0596 0)
(-0.0296587 -20.0552 0)
(-0.106066 -20.0771 0)
(-0.185886 -20.1266 0)
(-0.269592 -20.2061 0)
(-0.356515 -20.3184 0)
(-0.444109 -20.4667 0)
(-0.526926 -20.6537 0)
(-0.595388 -20.8804 0)
(-0.634692 -21.1438 0)
(-0.624882 -21.4327 0)
(-0.54419 -21.7225 0)
(-0.378417 -21.9704 0)
(-0.136685 -22.1187 0)
(0.285448 -25.2573 0)
(0.794012 -24.9751 0)
(1.15586 -24.5082 0)
(1.358 -23.9615 0)
(1.42913 -23.407 0)
(1.40857 -22.8836 0)
(1.33106 -22.4081 0)
(1.22199 -21.9856 0)
(1.09836 -21.6153 0)
(0.970762 -21.2939 0)
(0.845349 -21.0174 0)
(0.725425 -20.7819 0)
(0.61245 -20.5836 0)
(0.506699 -20.4189 0)
(0.407664 -20.285 0)
(0.31431 -20.1794 0)
(0.225231 -20.1002 0)
(0.138761 -20.046 0)
(0.0530711 -20.0161 0)
(-0.0337327 -20.0108 0)
(-0.123466 -20.0309 0)
(-0.217648 -20.0782 0)
(-0.317139 -20.1553 0)
(-0.421582 -20.2659 0)
(-0.528526 -20.4143 0)
(-0.632157 -20.6052 0)
(-0.721578 -20.8424 0)
(-0.778933 -21.1261 0)
(-0.778442 -21.4483 0)
(-0.689237 -21.7847 0)
(-0.486941 -22.0851 0)
(-0.177712 -22.2723 0)
(0.363818 -25.5799 0)
(0.999633 -25.2204 0)
(1.42922 -24.6542 0)
(1.6497 -24.0223 0)
(1.7101 -23.4072 0)
(1.66545 -22.8457 0)
(1.55952 -22.3489 0)
(1.42206 -21.916 0)
(1.27184 -21.542 0)
(1.11999 -21.2211 0)
(0.972682 -20.9472 0)
(0.833054 -20.7154 0)
(0.702329 -20.521 0)
(0.580521 -20.3602 0)
(0.466858 -20.2297 0)
(0.360019 -20.1267 0)
(0.258293 -20.0493 0)
(0.159685 -19.9959 0)
(0.0620023 -19.966 0)
(-0.0370507 -19.9594 0)
(-0.139738 -19.9774 0)
(-0.24807 -20.0217 0)
(-0.363444 -20.0955 0)
(-0.486025 -20.2033 0)
(-0.613782 -20.3507 0)
(-0.740958 -20.5446 0)
(-0.85581 -20.7921 0)
(-0.937659 -21.0981 0)
(-0.954205 -21.4597 0)
(-0.862569 -21.8553 0)
(-0.622179 -22.2274 0)
(-0.230271 -22.472 0)
(0.465199 -25.9921 0)
(1.25684 -25.5171 0)
(1.75491 -24.8164 0)
(1.98151 -24.0785 0)
(2.0174 -23.3937 0)
(1.93775 -22.7913 0)
(1.79594 -22.2732 0)
(1.6254 -21.8311 0)
(1.44582 -21.4551 0)
(1.26816 -21.136 0)
(1.09818 -20.866 0)
(0.938536 -20.639 0)
(0.79005 -20.4495 0)
(0.652376 -20.2933 0)
(0.524408 -20.1668 0)
(0.404505 -20.067 0)
(0.290624 -19.9917 0)
(0.180419 -19.9394 0)
(0.0713106 -19.9092 0)
(-0.0394327 -19.9013 0)
(-0.154577 -19.9165 0)
(-0.27672 -19.9571 0)
(-0.407941 -20.0265 0)
(-0.549178 -20.13 0)
(-0.699196 -20.2748 0)
(-0.852861 -20.4699 0)
(-0.998318 -20.7265 0)
(-1.11274 -21.0555 0)
(-1.15704 -21.4619 0)
(-1.0731 -21.931 0)
(-0.79528 -22.401 0)
(-0.299971 -22.7321 0)
(0.601335 -26.5228 0)
(1.58747 -25.8699 0)
(2.14852 -24.9877 0)
(2.36108 -24.1211 0)
(2.35367 -23.3592 0)
(2.2257 -22.7155 0)
(2.03965 -22.1781 0)
(1.83111 -21.7293 0)
(1.61941 -21.3534 0)
(1.41451 -21.0381 0)
(1.22118 -20.7736 0)
(1.04132 -20.5526 0)
(0.875153 -20.3691 0)
(0.721882 -20.2184 0)
(0.580014 -20.0966 0)
(0.447549 -20.0005 0)
(0.322092 -19.9278 0)
(0.200927 -19.8767 0)
(0.081067 -19.8463 0)
(-0.0406833 -19.8366 0)
(-0.167642 -19.8486 0)
(-0.303085 -19.8846 0)
(-0.449929 -19.9483 0)
(-0.61014 -20.0458 0)
(-0.783711 -20.1855 0)
(-0.966839 -20.3792 0)
(-1.14861 -20.6422 0)
(-1.30537 -20.9929 0)
(-1.39195 -21.4478 0)
(-1.33211 -22.0058 0)
(-1.02274 -22.6087 0)
(-0.395822 -23.0744 0)
(0.791675 -27.2166 0)
(2.02443 -26.2798 0)
(2.62931 -25.1547 0)
(2.79576 -24.1372 0)
(2.72017 -23.2947 0)
(2.5283 -22.6128 0)
(2.28908 -22.0604 0)
(2.03772 -21.6088 0)
(1.79142 -21.2362 0)
(1.55808 -20.927 0)
(1.34093 -20.6698 0)
(1.14078 -20.4563 0)
(0.95713 -20.28 0)
(0.788626 -20.1357 0)
(0.633349 -20.0194 0)
(0.488914 -19.9276 0)
(0.352549 -19.8578 0)
(0.221163 -19.8081 0)
(0.0913402 -19.7775 0)
(-0.0405965 -19.7659 0)
(-0.178562 -19.7741 0)
(-0.326585 -19.8045 0)
(-0.488569 -19.8611 0)
(-0.667766 -19.9504 0)
(-0.865854 -20.0822 0)
(-1.08118 -20.2704 0)
(-1.30519 -20.5352 0)
(-1.51558 -20.9036 0)
(-1.66349 -21.4074 0)
(-1.65351 -22.0687 0)
(-1.3296 -22.85 0)
(-0.532856 -23.5326 0)
(1.06973 -28.1443 0)
(2.61841 -26.7365 0)
(3.2198 -25.2945 0)
(3.29105 -24.1094 0)
(3.11586 -23.1899 0)
(2.84288 -22.4775 0)
(2.54168 -21.9171 0)
(2.24318 -21.4682 0)
(1.96031 -21.1028 0)
(1.69774 -20.8025 0)
(1.45655 -20.5546 0)
(1.23622 -20.3502 0)
(1.03543 -20.1823 0)
(0.852162 -20.0455 0)
(0.684063 -19.9355 0)
(0.52834 -19.8487 0)
(0.381832 -19.7823 0)
(0.241067 -19.7343 0)
(0.10219 -19.7035 0)
(-0.0389646 -19.6896 0)
(-0.186939 -19.6934 0)
(-0.346577 -19.7172 0)
(-0.5229 -19.765 0)
(-0.720677 -19.8438 0)
(-0.943703 -19.9641 0)
(-1.19338 -20.1419 0)
(-1.46521 -20.4018 0)
(-1.74144 -20.7799 0)
(-1.97451 -21.3269 0)
(-2.05342 -22.1011 0)
(-1.75468 -23.1154 0)
(-0.737141 -24.1609 0)
(1.49554 -29.4237 0)
(3.44931 -27.2017 0)
(3.94291 -25.3698 0)
(3.84807 -24.0148 0)
(3.53611 -23.0329 0)
(3.16467 -22.3038 0)
(2.79374 -21.7457 0)
(2.44489 -21.3062 0)
(2.12426 -20.9526 0)
(1.83218 -20.6644 0)
(1.56707 -20.428 0)
(1.32692 -20.2345 0)
(1.10946 -20.0763 0)
(0.912014 -19.9481 0)
(0.73178 -19.8453 0)
(0.565549 -19.764 0)
(0.409753 -19.7015 0)
(0.260561 -19.6555 0)
(0.113662 -19.6245 0)
(-0.0355875 -19.6083 0)
(-0.192371 -19.6072 0)
(-0.362382 -19.6233 0)
(-0.551863 -19.6606 0)
(-0.767284 -19.7262 0)
(-1.01491 -19.8309 0)
(-1.30006 -19.9923 0)
(-1.62417 -20.2382 0)
(-1.9781 -20.6133 0)
(-2.32411 -21.1889 0)
(-2.54778 -22.073 0)
(-2.35949 -23.3725 0)
(-1.05561 -25.05 0)
(2.1807 -31.2584 0)
(4.64535 -27.5693 0)
(4.81326 -25.3256 0)
(4.45951 -23.8267 0)
(3.97138 -22.8123 0)
(3.48649 -22.0869 0)
(3.04044 -21.5441 0)
(2.6397 -21.1223 0)
(2.28123 -20.7856 0)
(1.96004 -20.5128 0)
(1.67151 -20.2902 0)
(1.41207 -20.1092 0)
(1.17861 -19.9623 0)
(0.967684 -19.8436 0)
(0.776103 -19.749 0)
(0.600245 -19.6739 0)
(0.436106 -19.6159 0)
(0.279553 -19.5721 0)
(0.125777 -19.5411 0)
(-0.0302831 -19.5224 0)
(-0.194466 -19.5157 0)
(-0.373301 -19.5234 0)
(-0.574336 -19.5483 0)
(-0.80585 -19.598 0)
(-1.07676 -19.6829 0)
(-1.39703 -19.8208 0)
(-1.7757 -20.0416 0)
(-2.21678 -20.3958 0)
(-2.70434 -20.9732 0)
(-3.14518 -21.9401 0)
(-3.24319 -23.5343 0)
(-1.57589 -26.3576 0)
(3.34006 -34.0152 0)
(6.41569 -27.5755 0)
(5.81423 -25.095 0)
(5.10472 -23.5172 0)
(4.40603 -22.5192 0)
(3.79878 -21.8239 0)
(3.27599 -21.3119 0)
(2.82412 -20.9168 0)
(2.42905 -20.6022 0)
(2.0799 -20.3481 0)
(1.76884 -20.1415 0)
(1.49089 -19.975 0)
(1.24228 -19.8405 0)
(1.01865 -19.7325 0)
(0.816617 -19.6472 0)
(0.632117 -19.5789 0)
(0.460655 -19.526 0)
(0.297927 -19.4849 0)
(0.138527 -19.454 0)
(-0.022899 -19.4328 0)
(-0.192863 -19.4201 0)
(-0.378649 -19.4184 0)
(-0.589186 -19.4291 0)
(-0.834577 -19.4604 0)
(-1.12629 -19.5208 0)
(-1.47942 -19.6278 0)
(-1.91168 -19.8109 0)
(-2.44388 -20.1218 0)
(-3.09629 -20.6593 0)
(-3.82835 -21.6499 0)
(-4.56821 -23.3882 0)
(-2.46726 -28.3704 0)
(5.40055 -38.3818 0)
(9.10542 -26.5915 0)
(6.8424 -24.6386 0)
(5.74742 -23.0625 0)
(4.81801 -22.1501 0)
(4.09016 -21.5148 0)
(3.49401 -21.05 0)
(2.99453 -20.6907 0)
(2.56558 -20.4032 0)
(2.19042 -20.171 0)
(1.85806 -19.9822 0)
(1.56253 -19.8322 0)
(1.29985 -19.7116 0)
(1.06436 -19.6151 0)
(0.852875 -19.5405 0)
(0.660843 -19.4795 0)
(0.483119 -19.4325 0)
(0.315551 -19.3945 0)
(0.151848 -19.3637 0)
(-0.0133301 -19.3404 0)
(-0.187271 -19.321 0)
(-0.377791 -19.3096 0)
(-0.595318 -19.304 0)
(-0.851736 -19.3147 0)
(-1.16049 -19.3465 0)
(-1.54207 -19.4152 0)
(-2.02272 -19.5476 0)
(-2.64099 -19.7906 0)
(-3.46837 -20.2316 0)
(-4.50962 -21.1721 0)
(-6.60345 -22.4305 0)
(-4.067 -31.6284 0)
)
;

boundaryField
{
    left
    {
        type            calculated;
        value           nonuniform List<vector> 
16
(
(0 -24.4548 0)
(0 -24.4884 0)
(0 -24.5567 0)
(0 -24.6624 0)
(0 -24.8097 0)
(0 -25.005 0)
(0 -25.2573 0)
(0 -25.5799 0)
(0 -25.9921 0)
(0 -26.5228 0)
(0 -27.2166 0)
(0 -28.1443 0)
(0 -29.4237 0)
(0 -31.2584 0)
(0 -34.0152 0)
(0 -38.3818 0)
)
;
    }
    right
    {
        type            calculated;
        value           nonuniform List<vector> 
16
(
(0 -21.7929 0)
(0 -21.8124 0)
(0 -21.8522 0)
(0 -21.9143 0)
(0 -22.0016 0)
(0 -22.1187 0)
(0 -22.2723 0)
(0 -22.472 0)
(0 -22.7321 0)
(0 -23.0744 0)
(0 -23.5326 0)
(0 -24.1609 0)
(0 -25.05 0)
(0 -26.3576 0)
(0 -28.3704 0)
(0 -31.6284 0)
)
;
    }
    interface
    {
        type            calculated;
        value           nonuniform List<vector> 
32
(
(5.40055 -41.0802 0)
(9.10542 -25.7417 0)
(6.8424 -24.3527 0)
(5.74742 -22.7962 0)
(4.81801 -21.9466 0)
(4.09016 -21.3489 0)
(3.49401 -20.9119 0)
(2.99453 -20.5726 0)
(2.56558 -20.3 0)
(2.19042 -20.0795 0)
(1.85806 -19.8999 0)
(1.56253 -19.7587 0)
(1.29985 -19.6454 0)
(1.06436 -19.5549 0)
(0.852875 -19.486 0)
(0.660843 -19.4287 0)
(0.483119 -19.3849 0)
(0.315551 -19.3486 0)
(0.151848 -19.3179 0)
(-0.0133301 -19.2936 0)
(-0.187271 -19.2706 0)
(-0.377791 -19.2545 0)
(-0.595318 -19.2401 0)
(-0.851736 -19.2401 0)
(-1.16049 -19.2565 0)
(-1.54207 -19.3042 0)
(-2.02272 -19.4081 0)
(-2.64099 -19.6109 0)
(-3.46837 -19.9877 0)
(-4.50962 -20.8856 0)
(-6.60345 -21.6604 0)
(-4.067 -33.6572 0)
)
;
    }
    bottom
    {
        type            calculated;
        value           nonuniform List<vector> 
32
(
(0.0167742 -24.4465 0)
(0.0479114 -24.3123 0)
(0.0727171 -24.0632 0)
(0.0893567 -23.7306 0)
(0.0979853 -23.3484 0)
(0.0999755 -22.9467 0)
(0.0971156 -22.5486 0)
(0.091071 -22.1698 0)
(0.0831805 -21.82 0)
(0.0744017 -21.5043 0)
(0.0653663 -21.2248 0)
(0.0564591 -20.9814 0)
(0.0478885 -20.7731 0)
(0.0397413 -20.5983 0)
(0.0320219 -20.4552 0)
(0.0246801 -20.3421 0)
(0.0176288 -20.2578 0)
(0.0107579 -20.2011 0)
(0.0039464 -20.1717 0)
(-0.00292523 -20.1695 0)
(-0.00995839 -20.1951 0)
(-0.0172126 -20.2492 0)
(-0.0246711 -20.3328 0)
(-0.0321926 -20.4466 0)
(-0.0394493 -20.5903 0)
(-0.0458568 -20.7622 0)
(-0.0505195 -20.9572 0)
(-0.0522397 -21.1663 0)
(-0.0496704 -21.3751 0)
(-0.0416971 -21.5637 0)
(-0.0280514 -21.7087 0)
(-0.00992598 -21.7881 0)
)
;
    }
    defaultFaces
    {
        type            empty;
    }
}


// ************************************************************************* //
