/*--------------------------------*- C++ -*----------------------------------*\
| =========                 |                                                 |
| \\      /  F ield         | OpenFOAM: The Open Source CFD Toolbox           |
|  \\    /   O peration     | Version:  2112                                  |
|   \\  /    A nd           | Website:  www.openfoam.com                      |
|    \\/     M anipulation  |                                                 |
\*---------------------------------------------------------------------------*/
FoamFile
{
    version     2.0;
    format      ascii;
    arch        "LSB;label=32;scalar=64";
    class       volScalarField;
    location    "2";
    object      gradTx;
}
// * * * * * * * * * * * * * * * * * * * * * * * * * * * * * * * * * * * * * //

dimensions      [0 -1 0 1 0 0 0];

internalField   nonuniform List<scalar> 
512
(
0.0167742
0.0479114
0.0727171
0.0893567
0.0979853
0.0999755
0.0971156
0.091071
0.0831805
0.0744017
0.0653663
0.0564591
0.0478885
0.0397413
0.0320219
0.0246801
0.0176288
0.0107579
0.0039464
-0.00292523
-0.00995839
-0.0172126
-0.0246711
-0.0321926
-0.0394493
-0.0458568
-0.0505195
-0.0522397
-0.0496704
-0.0416971
-0.0280514
-0.00992598
0.0509272
0.14532
0.220197
0.270076
0.29562
0.301145
0.292147
0.273681
0.24977
0.223275
0.196072
0.169298
0.143565
0.119121
0.0959756
0.0739715
0.0528444
0.0322616
0.0118566
-0.00873336
-0.0298184
-0.0515857
-0.0739968
-0.0966439
-0.118561
-0.138007
-0.152295
-0.157793
-0.150364
-0.126512
-0.0852764
-0.0302107
0.0869515
0.247613
0.373937
0.456889
0.498273
0.505963
0.48956
0.45767
0.417024
0.372342
0.326686
0.281893
0.238932
0.19819
0.159656
0.123055
0.0879338
0.0537294
0.0198202
-0.014412
-0.0495035
-0.0857946
-0.123262
-0.161277
-0.19829
-0.23145
-0.256273
-0.266585
-0.255172
-0.215679
-0.145964
-0.0518365
0.126297
0.358499
0.538538
0.654114
0.709369
0.716834
0.690867
0.643879
0.585317
0.521679
0.457111
0.394053
0.333769
0.27673
0.222874
0.171786
0.12281
0.0751372
0.0278761
-0.0198663
-0.0688813
-0.119705
-0.172387
-0.226161
-0.278986
-0.326984
-0.363888
-0.380819
-0.367011
-0.312414
-0.21276
-0.0758478
0.170759
0.482434
0.719277
0.866448
0.932439
0.936107
0.897463
0.833022
0.75492
0.671289
0.587196
0.505556
0.427828
0.354504
0.285428
0.220015
0.157383
0.0964613
0.0360686
-0.0249895
-0.0877971
-0.153143
-0.221236
-0.291283
-0.360894
-0.425299
-0.476509
-0.502754
-0.489067
-0.420429
-0.288871
-0.10355
0.222707
0.62509
0.922462
1.09912
1.17112
1.16601
1.11055
1.02563
0.925957
0.821063
0.716714
0.616125
0.520829
0.431255
0.347103
0.26758
0.191557
0.117678
0.0444478
-0.0296587
-0.106066
-0.185886
-0.269592
-0.356515
-0.444109
-0.526926
-0.595388
-0.634692
-0.624882
-0.54419
-0.378417
-0.136685
0.285448
0.794012
1.15586
1.358
1.42913
1.40857
1.33106
1.22199
1.09836
0.970762
0.845349
0.725425
0.61245
0.506699
0.407664
0.31431
0.225231
0.138761
0.0530711
-0.0337327
-0.123466
-0.217648
-0.317139
-0.421582
-0.528526
-0.632157
-0.721578
-0.778933
-0.778442
-0.689237
-0.486941
-0.177712
0.363818
0.999633
1.42922
1.6497
1.7101
1.66545
1.55952
1.42206
1.27184
1.11999
0.972682
0.833054
0.702329
0.580521
0.466858
0.360019
0.258293
0.159685
0.0620023
-0.0370507
-0.139738
-0.24807
-0.363444
-0.486025
-0.613782
-0.740958
-0.85581
-0.937659
-0.954205
-0.862569
-0.622179
-0.230271
0.465199
1.25684
1.75491
1.98151
2.0174
1.93775
1.79594
1.6254
1.44582
1.26816
1.09818
0.938536
0.79005
0.652376
0.524408
0.404505
0.290624
0.180419
0.0713106
-0.0394327
-0.154577
-0.27672
-0.407941
-0.549178
-0.699196
-0.852861
-0.998318
-1.11274
-1.15704
-1.0731
-0.79528
-0.299971
0.601335
1.58747
2.14852
2.36108
2.35367
2.2257
2.03965
1.83111
1.61941
1.41451
1.22118
1.04132
0.875153
0.721882
0.580014
0.447549
0.322092
0.200927
0.081067
-0.0406833
-0.167642
-0.303085
-0.449929
-0.61014
-0.783711
-0.966839
-1.14861
-1.30537
-1.39195
-1.33211
-1.02274
-0.395822
0.791675
2.02443
2.62931
2.79576
2.72017
2.5283
2.28908
2.03772
1.79142
1.55808
1.34093
1.14078
0.95713
0.788626
0.633349
0.488914
0.352549
0.221163
0.0913402
-0.0405965
-0.178562
-0.326585
-0.488569
-0.667766
-0.865854
-1.08118
-1.30519
-1.51558
-1.66349
-1.65351
-1.3296
-0.532856
1.06973
2.61841
3.2198
3.29105
3.11586
2.84288
2.54168
2.24318
1.96031
1.69774
1.45655
1.23622
1.03543
0.852162
0.684063
0.52834
0.381832
0.241067
0.10219
-0.0389646
-0.186939
-0.346577
-0.5229
-0.720677
-0.943703
-1.19338
-1.46521
-1.74144
-1.97451
-2.05342
-1.75468
-0.737141
1.49554
3.44931
3.94291
3.84807
3.53611
3.16467
2.79374
2.44489
2.12426
1.83218
1.56707
1.32692
1.10946
0.912014
0.73178
0.565549
0.409753
0.260561
0.113662
-0.0355875
-0.192371
-0.362382
-0.551863
-0.767284
-1.01491
-1.30006
-1.62417
-1.9781
-2.32411
-2.54778
-2.35949
-1.05561
2.1807
4.64535
4.81326
4.45951
3.97138
3.48649
3.04044
2.6397
2.28123
1.96004
1.67151
1.41207
1.17861
0.967684
0.776103
0.600245
0.436106
0.279553
0.125777
-0.0302831
-0.194466
-0.373301
-0.574336
-0.80585
-1.07676
-1.39703
-1.7757
-2.21678
-2.70434
-3.14518
-3.24319
-1.57589
3.34006
6.41569
5.81423
5.10472
4.40603
3.79878
3.27599
2.82412
2.42905
2.0799
1.76884
1.49089
1.24228
1.01865
0.816617
0.632117
0.460655
0.297927
0.138527
-0.022899
-0.192863
-0.378649
-0.589186
-0.834577
-1.12629
-1.47942
-1.91168
-2.44388
-3.09629
-3.82835
-4.56821
-2.46726
5.40055
9.10542
6.8424
5.74742
4.81801
4.09016
3.49401
2.99453
2.56558
2.19042
1.85806
1.56253
1.29985
1.06436
0.852875
0.660843
0.483119
0.315551
0.151848
-0.0133301
-0.187271
-0.377791
-0.595318
-0.851736
-1.16049
-1.54207
-2.02272
-2.64099
-3.46837
-4.50962
-6.60345
-4.067
)
;

boundaryField
{
    left
    {
        type            calculated;
        value           uniform 0;
    }
    right
    {
        type            calculated;
        value           uniform 0;
    }
    interface
    {
        type            calculated;
        value           nonuniform List<scalar> 
32
(
5.40055
9.10542
6.8424
5.74742
4.81801
4.09016
3.49401
2.99453
2.56558
2.19042
1.85806
1.56253
1.29985
1.06436
0.852875
0.660843
0.483119
0.315551
0.151848
-0.0133301
-0.187271
-0.377791
-0.595318
-0.851736
-1.16049
-1.54207
-2.02272
-2.64099
-3.46837
-4.50962
-6.60345
-4.067
)
;
    }
    bottom
    {
        type            calculated;
        value           nonuniform List<scalar> 
32
(
0.0167742
0.0479114
0.0727171
0.0893567
0.0979853
0.0999755
0.0971156
0.091071
0.0831805
0.0744017
0.0653663
0.0564591
0.0478885
0.0397413
0.0320219
0.0246801
0.0176288
0.0107579
0.0039464
-0.00292523
-0.00995839
-0.0172126
-0.0246711
-0.0321926
-0.0394493
-0.0458568
-0.0505195
-0.0522397
-0.0496704
-0.0416971
-0.0280514
-0.00992598
)
;
    }
    defaultFaces
    {
        type            empty;
    }
}


// ************************************************************************* //
