/*--------------------------------*- C++ -*----------------------------------*\
| =========                 |                                                 |
| \\      /  F ield         | OpenFOAM: The Open Source CFD Toolbox           |
|  \\    /   O peration     | Version:  2112                                  |
|   \\  /    A nd           | Website:  www.openfoam.com                      |
|    \\/     M anipulation  |                                                 |
\*---------------------------------------------------------------------------*/
FoamFile
{
    version     2.0;
    format      ascii;
    arch        "LSB;label=32;scalar=64";
    class       volScalarField;
    location    "2";
    object      gradTy;
}
// * * * * * * * * * * * * * * * * * * * * * * * * * * * * * * * * * * * * * //

dimensions      [0 -1 0 1 0 0 0];

internalField   nonuniform List<scalar> 
512
(
-24.4548
-24.3194
-24.0684
-23.7336
-23.3495
-22.9464
-22.5473
-22.1679
-21.8178
-21.502
-21.2224
-20.9791
-20.7709
-20.5962
-20.4532
-20.3402
-20.2559
-20.1992
-20.1698
-20.1676
-20.1931
-20.2472
-20.3307
-20.4445
-20.5884
-20.7605
-20.9561
-21.1662
-21.3762
-21.5662
-21.7126
-21.7929
-24.4884
-24.348
-24.089
-23.7456
-23.3539
-22.945
-22.5419
-22.1601
-21.8087
-21.4924
-21.2129
-20.9698
-20.762
-20.5877
-20.4451
-20.3324
-20.2483
-20.1918
-20.1624
-20.1601
-20.1854
-20.2392
-20.3225
-20.4364
-20.5807
-20.754
-20.9519
-21.1655
-21.3806
-21.5765
-21.7286
-21.8124
-24.5567
-24.406
-24.1303
-23.7693
-23.3623
-22.9418
-22.5309
-22.1443
-21.7905
-21.4733
-21.1937
-20.9512
-20.7442
-20.5708
-20.429
-20.317
-20.2333
-20.177
-20.1476
-20.145
-20.1698
-20.2231
-20.3061
-20.4199
-20.5651
-20.7408
-20.9431
-21.1639
-21.3891
-21.5972
-21.7609
-21.8522
-24.6624
-24.4948
-24.1928
-23.8041
-23.3737
-22.9358
-22.5134
-22.12
-21.7627
-21.4442
-21.1648
-20.9232
-20.7174
-20.5454
-20.4048
-20.2938
-20.2109
-20.1549
-20.1254
-20.1224
-20.1466
-20.199
-20.2813
-20.395
-20.5413
-20.7202
-20.929
-21.1607
-21.4013
-21.6284
-21.8108
-21.9143
-24.8097
-24.6169
-24.2766
-23.8491
-23.3865
-22.9256
-22.4882
-22.0862
-21.7247
-21.4049
-21.1259
-20.8857
-20.6818
-20.5116
-20.3727
-20.2631
-20.1811
-20.1256
-20.0961
-20.0925
-20.1156
-20.1669
-20.248
-20.3613
-20.5087
-20.6915
-20.9086
-21.1545
-21.4163
-21.6703
-21.8799
-22.0016
-25.005
-24.7756
-24.3818
-23.9024
-23.3987
-22.9091
-22.4538
-22.0419
-21.6758
-21.355
-21.0769
-20.8387
-20.6372
-20.4694
-20.3328
-20.2249
-20.1442
-20.0893
-20.0596
-20.0552
-20.0771
-20.1266
-20.2061
-20.3184
-20.4667
-20.6537
-20.8804
-21.1438
-21.4327
-21.7225
-21.9704
-22.1187
-25.2573
-24.9751
-24.5082
-23.9615
-23.407
-22.8836
-22.4081
-21.9856
-21.6153
-21.2939
-21.0174
-20.7819
-20.5836
-20.4189
-20.285
-20.1794
-20.1002
-20.046
-20.0161
-20.0108
-20.0309
-20.0782
-20.1553
-20.2659
-20.4143
-20.6052
-20.8424
-21.1261
-21.4483
-21.7847
-22.0851
-22.2723
-25.5799
-25.2204
-24.6542
-24.0223
-23.4072
-22.8457
-22.3489
-21.916
-21.542
-21.2211
-20.9472
-20.7154
-20.521
-20.3602
-20.2297
-20.1267
-20.0493
-19.9959
-19.966
-19.9594
-19.9774
-20.0217
-20.0955
-20.2033
-20.3507
-20.5446
-20.7921
-21.0981
-21.4597
-21.8553
-22.2274
-22.472
-25.9921
-25.5171
-24.8164
-24.0785
-23.3937
-22.7913
-22.2732
-21.8311
-21.4551
-21.136
-20.866
-20.639
-20.4495
-20.2933
-20.1668
-20.067
-19.9917
-19.9394
-19.9092
-19.9013
-19.9165
-19.9571
-20.0265
-20.13
-20.2748
-20.4699
-20.7265
-21.0555
-21.4619
-21.931
-22.401
-22.7321
-26.5228
-25.8699
-24.9877
-24.1211
-23.3592
-22.7155
-22.1781
-21.7293
-21.3534
-21.0381
-20.7736
-20.5526
-20.3691
-20.2184
-20.0966
-20.0005
-19.9278
-19.8767
-19.8463
-19.8366
-19.8486
-19.8846
-19.9483
-20.0458
-20.1855
-20.3792
-20.6422
-20.9929
-21.4478
-22.0058
-22.6087
-23.0744
-27.2166
-26.2798
-25.1547
-24.1372
-23.2947
-22.6128
-22.0604
-21.6088
-21.2362
-20.927
-20.6698
-20.4563
-20.28
-20.1357
-20.0194
-19.9276
-19.8578
-19.8081
-19.7775
-19.7659
-19.7741
-19.8045
-19.8611
-19.9504
-20.0822
-20.2704
-20.5352
-20.9036
-21.4074
-22.0687
-22.85
-23.5326
-28.1443
-26.7365
-25.2945
-24.1094
-23.1899
-22.4775
-21.9171
-21.4682
-21.1028
-20.8025
-20.5546
-20.3502
-20.1823
-20.0455
-19.9355
-19.8487
-19.7823
-19.7343
-19.7035
-19.6896
-19.6934
-19.7172
-19.765
-19.8438
-19.9641
-20.1419
-20.4018
-20.7799
-21.3269
-22.1011
-23.1154
-24.1609
-29.4237
-27.2017
-25.3698
-24.0148
-23.0329
-22.3038
-21.7457
-21.3062
-20.9526
-20.6644
-20.428
-20.2345
-20.0763
-19.9481
-19.8453
-19.764
-19.7015
-19.6555
-19.6245
-19.6083
-19.6072
-19.6233
-19.6606
-19.7262
-19.8309
-19.9923
-20.2382
-20.6133
-21.1889
-22.073
-23.3725
-25.05
-31.2584
-27.5693
-25.3256
-23.8267
-22.8123
-22.0869
-21.5441
-21.1223
-20.7856
-20.5128
-20.2902
-20.1092
-19.9623
-19.8436
-19.749
-19.6739
-19.6159
-19.5721
-19.5411
-19.5224
-19.5157
-19.5234
-19.5483
-19.598
-19.6829
-19.8208
-20.0416
-20.3958
-20.9732
-21.9401
-23.5343
-26.3576
-34.0152
-27.5755
-25.095
-23.5172
-22.5192
-21.8239
-21.3119
-20.9168
-20.6022
-20.3481
-20.1415
-19.975
-19.8405
-19.7325
-19.6472
-19.5789
-19.526
-19.4849
-19.454
-19.4328
-19.4201
-19.4184
-19.4291
-19.4604
-19.5208
-19.6278
-19.8109
-20.1218
-20.6593
-21.6499
-23.3882
-28.3704
-38.3818
-26.5915
-24.6386
-23.0625
-22.1501
-21.5148
-21.05
-20.6907
-20.4032
-20.171
-19.9822
-19.8322
-19.7116
-19.6151
-19.5405
-19.4795
-19.4325
-19.3945
-19.3637
-19.3404
-19.321
-19.3096
-19.304
-19.3147
-19.3465
-19.4152
-19.5476
-19.7906
-20.2316
-21.1721
-22.4305
-31.6284
)
;

boundaryField
{
    left
    {
        type            calculated;
        value           nonuniform List<scalar> 
16
(
-24.4548
-24.4884
-24.5567
-24.6624
-24.8097
-25.005
-25.2573
-25.5799
-25.9921
-26.5228
-27.2166
-28.1443
-29.4237
-31.2584
-34.0152
-38.3818
)
;
    }
    right
    {
        type            calculated;
        value           nonuniform List<scalar> 
16
(
-21.7929
-21.8124
-21.8522
-21.9143
-22.0016
-22.1187
-22.2723
-22.472
-22.7321
-23.0744
-23.5326
-24.1609
-25.05
-26.3576
-28.3704
-31.6284
)
;
    }
    interface
    {
        type            calculated;
        value           nonuniform List<scalar> 
32
(
-41.0802
-25.7417
-24.3527
-22.7962
-21.9466
-21.3489
-20.9119
-20.5726
-20.3
-20.0795
-19.8999
-19.7587
-19.6454
-19.5549
-19.486
-19.4287
-19.3849
-19.3486
-19.3179
-19.2936
-19.2706
-19.2545
-19.2401
-19.2401
-19.2565
-19.3042
-19.4081
-19.6109
-19.9877
-20.8856
-21.6604
-33.6572
)
;
    }
    bottom
    {
        type            calculated;
        value           nonuniform List<scalar> 
32
(
-24.4465
-24.3123
-24.0632
-23.7306
-23.3484
-22.9467
-22.5486
-22.1698
-21.82
-21.5043
-21.2248
-20.9814
-20.7731
-20.5983
-20.4552
-20.3421
-20.2578
-20.2011
-20.1717
-20.1695
-20.1951
-20.2492
-20.3328
-20.4466
-20.5903
-20.7622
-20.9572
-21.1663
-21.3751
-21.5637
-21.7087
-21.7881
)
;
    }
    defaultFaces
    {
        type            empty;
    }
}


// ************************************************************************* //
