/*--------------------------------*- C++ -*----------------------------------*\
| =========                 |                                                 |
| \\      /  F ield         | OpenFOAM: The Open Source CFD Toolbox           |
|  \\    /   O peration     | Version:  2112                                  |
|   \\  /    A nd           | Website:  www.openfoam.com                      |
|    \\/     M anipulation  |                                                 |
\*---------------------------------------------------------------------------*/
FoamFile
{
    version     2.0;
    format      ascii;
    arch        "LSB;label=32;scalar=64";
    class       volScalarField;
    location    "2";
    object      T;
}
// * * * * * * * * * * * * * * * * * * * * * * * * * * * * * * * * * * * * * //

dimensions      [0 0 0 1 0 0 0];

internalField   nonuniform List<scalar> 
512
(
309.809
309.81
309.812
309.815
309.818
309.821
309.824
309.827
309.83
309.832
309.834
309.836
309.838
309.839
309.84
309.841
309.842
309.842
309.842
309.842
309.842
309.842
309.841
309.84
309.839
309.838
309.836
309.835
309.833
309.832
309.83
309.83
309.427
309.43
309.436
309.444
309.453
309.462
309.472
309.48
309.489
309.496
309.503
309.508
309.513
309.517
309.521
309.523
309.525
309.527
309.527
309.527
309.527
309.525
309.523
309.521
309.517
309.513
309.509
309.504
309.499
309.495
309.491
309.489
309.044
309.049
309.059
309.073
309.088
309.104
309.119
309.134
309.148
309.16
309.171
309.181
309.189
309.196
309.201
309.206
309.209
309.211
309.212
309.212
309.211
309.209
309.206
309.202
309.196
309.189
309.182
309.173
309.165
309.157
309.151
309.148
308.659
308.667
308.682
308.701
308.723
308.745
308.767
308.788
308.808
308.825
308.84
308.854
308.865
308.874
308.882
308.888
308.893
308.896
308.898
308.898
308.896
308.893
308.889
308.883
308.875
308.865
308.854
308.843
308.831
308.82
308.811
308.806
308.273
308.284
308.303
308.329
308.357
308.387
308.416
308.443
308.468
308.49
308.51
308.527
308.541
308.554
308.564
308.571
308.577
308.581
308.583
308.584
308.582
308.578
308.572
308.564
308.554
308.542
308.527
308.512
308.496
308.481
308.47
308.463
307.884
307.898
307.923
307.956
307.992
308.029
308.065
308.098
308.129
308.156
308.18
308.201
308.219
308.233
308.246
308.255
308.262
308.267
308.27
308.27
308.268
308.263
308.256
308.246
308.234
308.219
308.201
308.181
308.161
308.142
308.127
308.119
307.492
307.509
307.541
307.582
307.626
307.671
307.714
307.754
307.791
307.823
307.851
307.876
307.897
307.914
307.928
307.939
307.948
307.953
307.956
307.957
307.954
307.949
307.941
307.929
307.914
307.896
307.875
307.851
307.826
307.802
307.783
307.772
307.095
307.117
307.157
307.207
307.26
307.314
307.364
307.411
307.453
307.491
307.523
307.551
307.575
307.595
307.612
307.624
307.634
307.641
307.644
307.644
307.642
307.636
307.626
307.613
307.596
307.575
307.55
307.521
307.491
307.462
307.437
307.423
306.692
306.721
306.771
306.831
306.895
306.957
307.016
307.069
307.117
307.16
307.197
307.228
307.255
307.278
307.296
307.31
307.321
307.329
307.333
307.333
307.33
307.323
307.313
307.298
307.278
307.254
307.225
307.192
307.156
307.119
307.089
307.07
306.283
306.32
306.382
306.454
306.529
306.601
306.668
306.729
306.783
306.83
306.871
306.906
306.936
306.961
306.981
306.997
307.009
307.017
307.022
307.023
307.019
307.012
307
306.984
306.962
306.935
306.902
306.863
306.82
306.776
306.737
306.712
305.863
305.913
305.99
306.077
306.165
306.247
306.323
306.39
306.45
306.502
306.547
306.586
306.619
306.646
306.668
306.685
306.698
306.707
306.712
306.713
306.71
306.702
306.689
306.671
306.648
306.617
306.58
306.536
306.485
306.432
306.382
306.349
305.432
305.499
305.596
305.7
305.801
305.895
305.979
306.054
306.119
306.176
306.225
306.267
306.302
306.332
306.356
306.375
306.389
306.398
306.404
306.405
306.401
306.393
306.38
306.36
306.335
306.301
306.26
306.21
306.151
306.086
306.023
305.977
304.984
305.077
305.199
305.324
305.44
305.545
305.638
305.719
305.79
305.852
305.905
305.95
305.988
306.019
306.045
306.065
306.08
306.091
306.096
306.098
306.094
306.086
306.072
306.051
306.024
305.988
305.942
305.886
305.819
305.741
305.66
305.594
304.512
304.649
304.803
304.95
305.081
305.198
305.299
305.388
305.464
305.53
305.587
305.635
305.675
305.708
305.735
305.757
305.773
305.784
305.79
305.792
305.789
305.78
305.765
305.744
305.715
305.677
305.628
305.566
305.489
305.397
305.292
305.194
304.007
304.216
304.408
304.579
304.727
304.854
304.964
305.059
305.141
305.211
305.271
305.322
305.364
305.399
305.428
305.45
305.467
305.479
305.486
305.488
305.484
305.476
305.461
305.439
305.408
305.368
305.316
305.249
305.163
305.055
304.924
304.77
303.45
303.787
304.019
304.215
304.378
304.516
304.633
304.734
304.82
304.894
304.957
305.01
305.055
305.092
305.121
305.145
305.163
305.175
305.182
305.185
305.182
305.173
305.158
305.136
305.105
305.063
305.008
304.937
304.843
304.72
304.561
304.307
)
;

boundaryField
{
    left
    {
        type            zeroGradient;
    }
    right
    {
        type            zeroGradient;
    }
    interface
    {
        type            fixedValue;
        value           nonuniform List<scalar> 
32
(
303.129
303.586
303.828
304.037
304.206
304.349
304.47
304.573
304.662
304.737
304.802
304.856
304.901
304.939
304.969
304.993
305.011
305.024
305.031
305.034
305.031
305.022
305.008
304.985
304.954
304.912
304.857
304.784
304.687
304.557
304.392
304.044
)
;
    }
    bottom
    {
        type            fixedValue;
        value           uniform 310;
    }
    defaultFaces
    {
        type            empty;
    }
}


// ************************************************************************* //
