/*--------------------------------*- C++ -*----------------------------------*\
| =========                 |                                                 |
| \\      /  F ield         | OpenFOAM: The Open Source CFD Toolbox           |
|  \\    /   O peration     | Version:  2112                                  |
|   \\  /    A nd           | Website:  www.openfoam.com                      |
|    \\/     M anipulation  |                                                 |
\*---------------------------------------------------------------------------*/
FoamFile
{
    version     2.0;
    format      ascii;
    arch        "LSB;label=32;scalar=64";
    class       volVectorField;
    location    "0.4";
    object      flux;
}
// * * * * * * * * * * * * * * * * * * * * * * * * * * * * * * * * * * * * * //

dimensions      [0 1 -1 1 0 0 0];

internalField   nonuniform List<vector> 
1681
(
(2622.46500531 -15.3891437495 0)
(0.0111556344285 -15.3104550355 0)
(0.0167131426021 -15.1656357636 0)
(0.0200500829457 -14.9756748143 0)
(0.021264787313 -14.7640921455 0)
(0.0208107562867 -14.5499020187 0)
(0.0192006655302 -14.3475047219 0)
(0.016951797593 -14.1656186176 0)
(0.014465603115 -14.0082837371 0)
(0.0120150808528 -13.8761851469 0)
(0.00976234592624 -13.7679050539 0)
(0.00778740827563 -13.6808905049 0)
(0.00611509282005 -13.6121278624 0)
(0.00473646025892 -13.5585712057 0)
(0.0036241822527 -13.5173882418 0)
(0.00274278749975 -13.4860813463 0)
(0.00205504195365 -13.4625287666 0)
(0.00152562239419 -13.4449782525 0)
(0.00112299229224 -13.4320149355 0)
(0.000820138793381 -13.4225175447 0)
(0.000594626018767 -13.4156116141 0)
(0.000428268421867 -13.4106246743 0)
(0.000306620494161 -13.4070460189 0)
(0.000218405021788 -13.4044921172 0)
(0.000154952072593 -13.4026778239 0)
(0.000109687888291 -13.401393017 0)
(7.76914798526e-05 -13.400484033 0)
(5.53236752973e-05 -13.3998391742 0)
(3.99257655325e-05 -13.3993775636 0)
(2.95812439243e-05 -13.3990406798 0)
(2.29334602062e-05 -13.3987859779 0)
(1.90570748559e-05 -13.3985820714 0)
(1.74000979093e-05 -13.3984049283 0)
(1.78268747156e-05 -13.398234218 0)
(2.06072540204e-05 -13.3980486175 0)
(2.52919419215e-05 -13.3978221753 0)
(2.65311655493e-05 -13.3975417788 0)
(1.00605443354e-05 -13.397287985 0)
(-2.8582769183e-06 -13.3973427932 0)
(-5.89695901388e-06 -13.3973530252 0)
(-2622.66009101 -13.3974598079 0)
(2619.39507494 -15.388874682 0)
(0.0335459627596 -15.309565971 0)
(0.0502429016356 -15.1637815721 0)
(0.0602586406642 -14.9727046927 0)
(0.0638897718088 -14.7600677328 0)
(0.0625067284274 -14.5450242959 0)
(0.0576560146946 -14.3419913052 0)
(0.0508923993823 -14.1596614511 0)
(0.0434210910232 -14.0020313251 0)
(0.0360606557801 -13.8697434233 0)
(0.029296582471 -13.7613452608 0)
(0.0233680300284 -13.6742585702 0)
(0.0183487670322 -13.6054524779 0)
(0.0142114638534 -13.5518698799 0)
(0.0108737896221 -13.5106714774 0)
(0.00822910753432 -13.4793553724 0)
(0.00616557680686 -13.4557972575 0)
(0.00457714383353 -13.4382433766 0)
(0.00336914926843 -13.4252779812 0)
(0.00246052549659 -13.4157792871 0)
(0.00178394806475 -13.4088725272 0)
(0.00128485060363 -13.4038850538 0)
(0.000919890916777 -13.4003060532 0)
(0.000655233987623 -13.3977519288 0)
(0.000464867973879 -13.3959374949 0)
(0.000329070282344 -13.3946526047 0)
(0.000233077075498 -13.3937435799 0)
(0.00016597021555 -13.3930987151 0)
(0.000119773113506 -13.3926371308 0)
(8.87358974818e-05 -13.3923003072 0)
(6.87882176664e-05 -13.3920457039 0)
(5.71528334494e-05 -13.3918419436 0)
(5.21705858313e-05 -13.3916650216 0)
(5.34353025376e-05 -13.3914946757 0)
(6.18012836898e-05 -13.3913096021 0)
(7.60757821417e-05 -13.3910831237 0)
(8.03068930103e-05 -13.3907993454 0)
(2.97365811646e-05 -13.3905360695 0)
(-1.01497538727e-05 -13.3906084558 0)
(-1.75059834496e-05 -13.3906304611 0)
(-2619.98094652 -13.3907234126 0)
(2616.32531718 -15.3883723057 0)
(0.0561742564111 -15.3078347156 0)
(0.0840853982667 -15.1600910979 0)
(0.100792850798 -14.9667716636 0)
(0.106800866662 -14.7520256987 0)
(0.104426041816 -14.5352750058 0)
(0.0962732344913 -14.3309719358 0)
(0.0849437935991 -14.1477566485 0)
(0.072449208677 -13.98953816 0)
(0.0601522937287 -13.8568734327 0)
(0.0488593165463 -13.7482405265 0)
(0.0389659648466 -13.6610105896 0)
(0.0305928308715 -13.592118353 0)
(0.0236926603591 -13.5384844186 0)
(0.0181270837657 -13.4972555343 0)
(0.0137176314868 -13.4659212985 0)
(0.010277441113 -13.4423523247 0)
(0.00762947763947 -13.4247918668 0)
(0.00561581018376 -13.411822431 0)
(0.00410122959926 -13.4023212168 0)
(0.00297347267059 -13.3954128628 0)
(0.00214156322304 -13.3904243701 0)
(0.00153324549691 -13.3868447143 0)
(0.00109211667522 -13.3842901706 0)
(0.000774816903932 -13.3824754747 0)
(0.000548470898432 -13.3811904315 0)
(0.000388469403954 -13.380281335 0)
(0.000276613494659 -13.3796364652 0)
(0.000199607333286 -13.3791749385 0)
(0.000147866631986 -13.3788382387 0)
(0.000114606179454 -13.3785838351 0)
(9.51935291736e-05 -13.3783803694 0)
(8.68536857096e-05 -13.3782038847 0)
(8.89107706245e-05 -13.3780342342 0)
(0.000102917653139 -13.3778501674 0)
(0.000127343272335 -13.3776239494 0)
(0.000135942002735 -13.3773355126 0)
(4.8238474707e-05 -13.3770578393 0)
(-2.17365874335e-05 -13.3771576952 0)
(-2.88883173499e-05 -13.3771990129 0)
(-2617.30382023 -13.3772745278 0)
(2613.25583354 -15.3877124258 0)
(0.0792022043191 -15.3053368259 0)
(0.118455512042 -15.1546038654 0)
(0.141871720506 -14.9578959108 0)
(0.150189103369 -14.7399811318 0)
(0.146717481007 -14.5206681001 0)
(0.135159686159 -14.3144633387 0)
(0.119179154547 -14.1299251861 0)
(0.101597734185 -13.9708295029 0)
(0.0843201824818 -13.837604056 0)
(0.0684691510798 -13.7286225476 0)
(0.0545924647208 -13.6411803592 0)
(0.0428540012352 -13.5721608192 0)
(0.0331840275955 -13.51845127 0)
(0.0253864136459 -13.4771776753 0)
(0.0192097494486 -13.4458169856 0)
(0.0143914631449 -13.4222322722 0)
(0.0106831225766 -13.4046623571 0)
(0.00786327927169 -13.391687166 0)
(0.00574243914448 -13.3821824005 0)
(0.00416331739839 -13.3752718269 0)
(0.00299848030476 -13.3702819333 0)
(0.00214673081028 -13.36670139 0)
(0.00152908191232 -13.3641462879 0)
(0.00108481579965 -13.3623312505 0)
(0.00076789821956 -13.3610460157 0)
(0.000543870340086 -13.3601368388 0)
(0.00038724951093 -13.3594919809 0)
(0.000279418421583 -13.3590305541 0)
(0.000206956585551 -13.3586940491 0)
(0.000160362063752 -13.3584399519 0)
(0.000133142907577 -13.3582369331 0)
(0.000121397625307 -13.3580610986 0)
(0.000124178757099 -13.3578924429 0)
(0.000143858251023 -13.3577098145 0)
(0.000179006743393 -13.3574844639 0)
(0.000193528918376 -13.357192146 0)
(6.53000639938e-05 -13.3568998611 0)
(-3.8384487049e-05 -13.3570292854 0)
(-4.08725079759e-05 -13.3570914165 0)
(-2614.63005181 -13.3571545256 0)
(2610.18670733 -15.3870127691 0)
(0.102795968488 -15.3021691839 0)
(0.153573581282 -15.147382603 0)
(0.183717397518 -14.9461125131 0)
(0.1942464288 -14.7239586815 0)
(0.189529600448 -14.5012266519 0)
(0.174421817305 -14.292493026 0)
(0.153670560745 -14.1062011758 0)
(0.130913434682 -13.9459460204 0)
(0.108593684789 -13.8119814911 0)
(0.0881440559106 -13.7025418353 0)
(0.0702583105239 -13.6148216217 0)
(0.0551386487199 -13.5456359977 0)
(0.0426892891456 -13.4918282987 0)
(0.0326539406477 -13.4504970477 0)
(0.0247067121064 -13.4191025317 0)
(0.0185083668151 -13.3954979083 0)
(0.0137384988712 -13.37791619 0)
(0.0101118014931 -13.3649339323 0)
(0.0073842974347 -13.3554248893 0)
(0.00535356611536 -13.3485117006 0)
(0.00385565060222 -13.3435201978 0)
(0.00276037458547 -13.3399386642 0)
(0.00196614456878 -13.3373829608 0)
(0.00139487133415 -13.3355675739 0)
(0.000987353246448 -13.3342821608 0)
(0.000699276364095 -13.3333729325 0)
(0.000497870427845 -13.3327281305 0)
(0.00035919369849 -13.3322668649 0)
(0.000265987072192 -13.3319306389 0)
(0.000206029379024 -13.3316769635 0)
(0.000170964181947 -13.3314745493 0)
(0.00015575172118 -13.3312995799 0)
(0.00015916760409 -13.3311322116 0)
(0.000184513451396 -13.3309514423 0)
(0.000230876960377 -13.3307276537 0)
(0.000252862557249 -13.3304328339 0)
(8.08105913628e-05 -13.3301272798 0)
(-6.00476600606e-05 -13.3302856906 0)
(-5.39363500187e-05 -13.330366814 0)
(-2611.96097105 -13.3304223114 0)
(2607.11799715 -15.386430547 0)
(0.127128237553 -15.2984555708 0)
(0.189666846198 -15.1385082105 0)
(0.226556504794 -14.9314665445 0)
(0.239166275608 -14.7039879695 0)
(0.23301061211 -14.4769783935 0)
(0.214164781384 -14.265094844 0)
(0.188488555674 -14.0766273711 0)
(0.160441671124 -13.9149392146 0)
(0.133001019503 -13.7800645884 0)
(0.107901124971 -13.6700629539 0)
(0.0859736322351 -13.5820032144 0)
(0.0674526658285 -13.5126158679 0)
(0.0522118175962 -13.4586897867 0)
(0.0399315670382 -13.417289628 0)
(0.0302095773305 -13.3858551703 0)
(0.0226287314857 -13.3622274064 0)
(0.0167959177771 -13.3446322467 0)
(0.0123615394192 -13.3316421457 0)
(0.00902688548488 -13.3221285037 0)
(0.00654425570417 -13.3152126103 0)
(0.00471308758189 -13.31021952 0)
(0.00337417820371 -13.3066370658 0)
(0.002403299981 -13.3040808464 0)
(0.00170497580929 -13.3022651963 0)
(0.00120682649831 -13.3009796875 0)
(0.000854676391695 -13.3000704871 0)
(0.000608463021621 -13.2994258209 0)
(0.000438916731346 -13.2989648033 0)
(0.000324936864765 -13.298628958 0)
(0.000251579991759 -13.2983758312 0)
(0.000208619636148 -13.2981741864 0)
(0.000189865175284 -13.2980003003 0)
(0.000193806270331 -13.2978345117 0)
(0.000224769829662 -13.2976560209 0)
(0.000282728430517 -13.2974345206 0)
(0.000313603691076 -13.2971388085 0)
(9.47287159856e-05 -13.2968221543 0)
(-8.62913288946e-05 -13.297007656 0)
(-6.81966755226e-05 -13.2971046611 0)
(-2609.29789398 -13.297155957 0)
(2604.0497301 -15.3861634186 0)
(0.152380435789 -15.2943494559 0)
(0.226971386545 -15.1280791915 0)
(0.270621445707 -14.9140122169 0)
(0.28514405901 -14.6801032504 0)
(0.277308225546 -14.447955713 0)
(0.254492021784 -14.2323092599 0)
(0.223701686638 -14.041255651 0)
(0.19022599121 -13.877872031 0)
(0.157568936924 -13.7419255325 0)
(0.127756330723 -13.6312652488 0)
(0.101747727719 -13.5428098298 0)
(0.0798013342562 -13.4731890528 0)
(0.0617545371244 -13.4191272385 0)
(0.047220863916 -13.3776490435 0)
(0.0357191564285 -13.3461701049 0)
(0.0267529515455 -13.32251715 0)
(0.0198555510234 -13.3049077996 0)
(0.0146125500976 -13.2919097509 0)
(0.0106702044983 -13.2823916973 0)
(0.00773536284225 -13.2754733943 0)
(0.00557075950441 -13.2704790276 0)
(0.00398810930179 -13.2668959388 0)
(0.00284051846859 -13.2643394497 0)
(0.00201510313386 -13.2625237415 0)
(0.00142629508865 -13.2612383062 0)
(0.00101004966579 -13.260329276 0)
(0.000719007189083 -13.2596848706 0)
(0.00051856628524 -13.2592242194 0)
(0.000383781498927 -13.2588888782 0)
(0.00029698369691 -13.2586364411 0)
(0.000246070358165 -13.2584357394 0)
(0.000223686662567 -13.2582631594 0)
(0.000228023477199 -13.2580992448 0)
(0.000264511675064 -13.2579234543 0)
(0.000334319445316 -13.2577049875 0)
(0.000375335818851 -13.2574100921 0)
(0.000107041087591 -13.2570850177 0)
(-0.00011654902309 -13.257295043 0)
(-8.35965411571e-05 -13.2574048454 0)
(-2606.64211892 -13.2574542006 0)
(2600.98189457 -15.3864515562 0)
(0.178745082975 -15.2900359416 0)
(0.265734293984 -15.1162118976 0)
(0.316151693008 -14.8938126809 0)
(0.332377576386 -14.6523437697 0)
(0.322569410212 -14.4141964716 0)
(0.29550479379 -14.1941845769 0)
(0.25937600145 -14.0001485076 0)
(0.220307694831 -13.8348205188 0)
(0.182322375938 -13.6976516116 0)
(0.147724265516 -13.5862446905 0)
(0.117588871445 -13.4973439148 0)
(0.0921891840853 -13.4274627623 0)
(0.0713198194475 -13.3732513611 0)
(0.0545229937519 -13.331688582 0)
(0.0412359560323 -13.300162543 0)
(0.0308811925543 -13.2764837862 0)
(0.0229173975898 -13.2588605815 0)
(0.0168647598606 -13.2458553026 0)
(0.0123141568231 -13.2363336467 0)
(0.00892678965825 -13.2294136986 0)
(0.00642857867412 -13.22441872 0)
(0.00460209378088 -13.220835547 0)
(0.00327773944222 -13.2182792306 0)
(0.00232520450347 -13.216463814 0)
(0.00164571958864 -13.2151787274 0)
(0.00116536350759 -13.2142700861 0)
(0.000829474348718 -13.2136261212 0)
(0.00059811521722 -13.2131659934 0)
(0.000442492525348 -13.2128313061 0)
(0.00034220775793 -13.2125797173 0)
(0.000283275968647 -13.2123801427 0)
(0.000257164092743 -13.2122090974 0)
(0.000261747296175 -13.2120473537 0)
(0.000303621291424 -13.2118746897 0)
(0.00038540086465 -13.2116600162 0)
(0.00043759763595 -13.2113676833 0)
(0.00011773854345 -13.2110371695 0)
(-0.000150256866669 -13.2112688611 0)
(-0.000100028192845 -13.2113889578 0)
(-2603.99492218 -13.2114378101 0)
(2597.9144326 -15.3875801298 0)
(0.206428367492 -15.2857332148 0)
(0.306216038673 -15.103040504 0)
(0.363395071299 -14.8709394978 0)
(0.381067300879 -14.6207537924 0)
(0.3689400641 -14.3757445867 0)
(0.337301614588 -14.1507779784 0)
(0.295574498262 -13.9533803902 0)
(0.250725370408 -13.7858753579 0)
(0.207284102574 -13.6473468546 0)
(0.167817870074 -13.5351155829 0)
(0.133504113366 -13.4457274313 0)
(0.104619845004 -13.3755645953 0)
(0.080909373193 -13.3211938999 0)
(0.0618386275211 -13.2795430561 0)
(0.0467601155864 -13.2479695845 0)
(0.0350133438609 -13.2242661326 0)
(0.0259812477347 -13.2066307076 0)
(0.0191179370421 -13.1936198984 0)
(0.0139585253073 -13.1840961935 0)
(0.0101183481951 -13.1771759268 0)
(0.00728638982717 -13.172181423 0)
(0.00521600718402 -13.1685990316 0)
(0.00371486505792 -13.1660435645 0)
(0.00263520376657 -13.1642289616 0)
(0.00186504067419 -13.1629446245 0)
(0.0013205709119 -13.1620366818 0)
(0.000939825733437 -13.1613934021 0)
(0.000677529290756 -13.1609340005 0)
(0.000501036711908 -13.1606001486 0)
(0.000387216394832 -13.1603495872 0)
(0.000320194334764 -13.1601513362 0)
(0.00029024445739 -13.1599820607 0)
(0.000294905013853 -13.1598227881 0)
(0.000341979168996 -13.1596536813 0)
(0.000435720738248 -13.159443573 0)
(0.000499905155044 -13.1591555495 0)
(0.000126805533695 -13.1588227223 0)
(-0.000186906673633 -13.1590731487 0)
(-0.000117386347872 -13.1592017115 0)
(-2601.35755357 -13.1592509097 0)
(2594.8472319 -15.3898821584 0)
(0.235653008128 -15.2816937233 0)
(0.348693037382 -15.0887165617 0)
(0.412609035329 -14.8454716752 0)
(0.431416558619 -14.5853822221 0)
(0.416564573023 -14.3326503127 0)
(0.379977633078 -14.1021563281 0)
(0.332356525549 -13.9010388339 0)
(0.28151440195 -13.7311431748 0)
(0.232474330929 -13.5911334541 0)
(0.188048150175 -13.4780120528 0)
(0.14949906896 -13.388103393 0)
(0.117095890371 -13.3176441142 0)
(0.0905241272859 -13.263109245 0)
(0.0691678568306 -13.2213704367 0)
(0.0522913407377 -13.1897518762 0)
(0.0391489679358 -13.1660268506 0)
(0.0290466444302 -13.1483823629 0)
(0.0213716626741 -13.1353688779 0)
(0.0156029511505 -13.1258455517 0)
(0.0113097437624 -13.118926953 0)
(0.00814395770561 -13.1139345067 0)
(0.00582966548597 -13.110354133 0)
(0.0041517534418 -13.1078004661 0)
(0.00294499249548 -13.1059874007 0)
(0.00208417556005 -13.1047043611 0)
(0.00147560799004 -13.1037975328 0)
(0.00105001059101 -13.1031552592 0)
(0.000756765916406 -13.1026968401 0)
(0.000559375195033 -13.1023640415 0)
(0.000431970248745 -13.1021147107 0)
(0.000356781276291 -13.1019179944 0)
(0.000322873711851 -13.1017507312 0)
(0.000327423159415 -13.1015942333 0)
(0.000379464314999 -13.1014291179 0)
(0.000485027228832 -13.1012243552 0)
(0.000561767758516 -13.1009423678 0)
(0.000134218699518 -13.1006103808 0)
(-0.000226054698149 -13.100876641 0)
(-0.000135580379057 -13.1010123966 0)
(-2598.73123165 -13.1010623435 0)
(2591.78011743 -15.3937418082 0)
(0.266661486848 -15.2782052349 0)
(0.393460448306 -15.0734081266 0)
(0.464061939214 -14.8174942856 0)
(0.483631573365 -14.5462818785 0)
(0.465585242886 -14.2849703008 0)
(0.423623910346 -14.0483968178 0)
(0.369777128925 -13.8432254611 0)
(0.312706446369 -13.6707477393 0)
(0.257910326975 -13.5291530686 0)
(0.208423882304 -13.415089416 0)
(0.165577701092 -13.3246372757 0)
(0.129618674594 -13.2538742905 0)
(0.100164108698 -13.1991759072 0)
(0.0765101012932 -13.1573533536 0)
(0.057828832789 -13.1256951353 0)
(0.0432872465226 -13.1019539861 0)
(0.0321128422883 -13.0843053568 0)
(0.023625299274 -13.0712933883 0)
(0.0172469102881 -13.0617738818 0)
(0.0125005571887 -13.0548597025 0)
(0.00900095382267 -13.0498714706 0)
(0.00644281531796 -13.0462947787 0)
(0.0045882115229 -13.0437441799 0)
(0.00325442476234 -13.0419336086 0)
(0.00230301423952 -13.0406525841 0)
(0.00163039128621 -13.0397474087 0)
(0.00115996428042 -13.0391065492 0)
(0.000835772834823 -13.0386494303 0)
(0.000617462590403 -13.0383179451 0)
(0.000476425810589 -13.038070076 0)
(0.000392990246213 -13.0378751222 0)
(0.000354996678289 -13.0377101223 0)
(0.000359227659638 -13.0375567059 0)
(0.000415954796078 -13.0373960177 0)
(0.00053307077006 -13.0371973853 0)
(0.000622700025284 -13.0369231246 0)
(0.000139950889831 -13.0365950724 0)
(-0.000267309829976 -13.036874329 0)
(-0.000154526849652 -13.0370163713 0)
(-2596.11713862 -13.0370671083 0)
(2588.7128425 -15.3995982533 0)
(0.299719744461 -15.2755918688 0)
(0.440835227241 -15.0572984595 0)
(0.518034284951 -14.7870966798 0)
(0.537921355587 -14.5035084974 0)
(0.516141585151 -14.2327675154 0)
(0.468326601018 -13.9895875424 0)
(0.407886341262 -13.7800569386 0)
(0.344328880449 -13.6048311216 0)
(0.283605995594 -13.4615680847 0)
(0.228951308743 -13.3465255001 0)
(0.18174209404 -13.2555183833 0)
(0.142188164082 -13.1844529052 0)
(0.109828314676 -13.1295979467 0)
(0.0838640112159 -13.0877005509 0)
(0.0633712142452 -13.0560116251 0)
(0.0474269236173 -13.0322624627 0)
(0.0351787639778 -13.0146166313 0)
(0.025877957676 -13.0016119034 0)
(0.0188896883189 -12.9921008179 0)
(0.0136902260144 -12.9851946849 0)
(0.00985694246314 -12.9802134809 0)
(0.00705512362359 -12.9766426245 0)
(0.00502398746455 -12.9740967236 0)
(0.00356331165661 -12.9722898685 0)
(0.00252141552957 -12.9710117698 0)
(0.00178481496099 -12.970108925 0)
(0.00126960628727 -12.969469987 0)
(0.000914486732395 -12.9690145556 0)
(0.000675246052741 -12.9686846921 0)
(0.000520534828373 -12.968438547 0)
(0.000428772014967 -12.9682456027 0)
(0.000386556975908 -12.9680831266 0)
(0.000390244074432 -12.9679331013 0)
(0.00045132843109 -12.9677772754 0)
(0.00057960585595 -12.9675855571 0)
(0.000682230344855 -12.9673206662 0)
(0.000143977803382 -12.9669995225 0)
(-0.000310314477016 -12.9672889934 0)
(-0.000174136221298 -12.9674365967 0)
(-2593.51641496 -12.9674878572 0)
(2585.6450794 -15.4079502266 0)
(0.335121445615 -15.2742151344 0)
(0.491159486098 -15.0405842523 0)
(0.574819931638 -14.7543702724 0)
(0.59449740625 -14.457119484 0)
(0.568369433878 -14.1761110578 0)
(0.514166025696 -13.9258280539 0)
(0.446728413081 -13.7116659371 0)
(0.376404217162 -13.5335548549 0)
(0.309571451289 -13.3885628807 0)
(0.249633822583 -13.2725219654 0)
(0.197992220059 -13.1809612074 0)
(0.154802761911 -13.109603941 0)
(0.119514579556 -13.0546063951 0)
(0.0912273656154 -13.012648333 0)
(0.0689164504475 -12.9809416228 0)
(0.0515662452722 -12.9571955673 0)
(0.0382429541435 -12.9395617595 0)
(0.0281284619535 -12.9265717329 0)
(0.0205303539872 -12.9170749857 0)
(0.0148780246033 -12.9101815182 0)
(0.0107113659041 -12.9052108996 0)
(0.0076661667782 -12.901648586 0)
(0.00545876272136 -12.8991094218 0)
(0.00387141552313 -12.8973078048 0)
(0.00273920294493 -12.8960337603 0)
(0.00193874784934 -12.8951340804 0)
(0.00137883814693 -12.8944976831 0)
(0.000992831806084 -12.8940444053 0)
(0.000732664309196 -12.8937165254 0)
(0.000564243686264 -12.8934724024 0)
(0.000464074330988 -12.8932817357 0)
(0.000417496961078 -12.8931220545 0)
(0.000420397900149 -12.8929757321 0)
(0.000485463627024 -12.8928252003 0)
(0.0006243926102 -12.8926411728 0)
(0.000739906960838 -12.8923872385 0)
(0.000146285449357 -12.8920758145 0)
(-0.000354724681793 -12.8923727408 0)
(-0.000194299605576 -12.8925252043 0)
(-2590.93015373 -12.8925764529 0)
(2582.57640942 -15.4193614056 0)
(0.373192939316 -15.2744749749 0)
(0.544804199655 -15.0234732992 0)
(0.634727238621 -14.719405853 0)
(0.653573198492 -14.4071724292 0)
(0.622399871175 -14.1150759196 0)
(0.561215625168 -13.8572299155 0)
(0.486340981051 -13.6382021068 0)
(0.408949491739 -13.4571011114 0)
(0.335812573498 -13.3103450975 0)
(0.270471643398 -13.1933056274 0)
(0.21432569892 -13.1012067864 0)
(0.167459126539 -13.0295789713 0)
(0.129219436284 -12.9744606707 0)
(0.0985969656657 -12.9324620038 0)
(0.0744617673822 -12.9007548796 0)
(0.0557028962785 -12.877026427 0)
(0.0413035308574 -12.8594164366 0)
(0.0303753124382 -12.8464505241 0)
(0.0221677312483 -12.8369755116 0)
(0.0160630432335 -12.830100444 0)
(0.011563528901 -12.8251448035 0)
(0.00827541918157 -12.8215943611 0)
(0.00589214372159 -12.8190644305 0)
(0.00417844396643 -12.8172699085 0)
(0.00295616040047 -12.81600129 0)
(0.00209203040812 -12.8151057844 0)
(0.00148754130312 -12.8144726714 0)
(0.00107071826945 -12.8140221006 0)
(0.000789646645601 -12.8136966263 0)
(0.00060749275916 -12.8134548628 0)
(0.000498841581299 -12.813266766 0)
(0.000447757693974 -12.8131101623 0)
(0.000449614919185 -12.8129678563 0)
(0.000518240290015 -12.8128230438 0)
(0.000667198222452 -12.8126474704 0)
(0.000795302002901 -12.8124060155 0)
(0.000146877331916 -12.8121069352 0)
(-0.000400192419179 -12.8124085389 0)
(-0.000214878628314 -12.8125650676 0)
(-2588.35939462 -12.8126155357 0)
(2579.50631213 -15.4344668017 0)
(0.414299066893 -15.2768107814 0)
(0.602173310479 -15.0061814884 0)
(0.698080105633 -14.682290354 0)
(0.715363392945 -14.353723382 0)
(0.678357936626 -14.049742675 0)
(0.60954078824 -13.7839172609 0)
(0.5267541739 -13.5598330672 0)
(0.441975619027 -13.375673882 0)
(0.362330548092 -13.2271469014 0)
(0.291461484811 -13.1091297616 0)
(0.23073755128 -13.0165240398 0)
(0.180151985051 -12.9446585209 0)
(0.138937973049 -12.8894499634 0)
(0.105968523829 -12.8474372743 0)
(0.0800035658155 -12.8157520461 0)
(0.0598339338725 -12.7920594506 0)
(0.044358134721 -12.7744879338 0)
(0.0326166469583 -12.7615577255 0)
(0.0238003700087 -12.7521134937 0)
(0.0172441662141 -12.7452638034 0)
(0.0124125824852 -12.740328464 0)
(0.00888224137972 -12.7367939119 0)
(0.00632365324256 -12.734276221 0)
(0.00448404363206 -12.732491023 0)
(0.00317202776137 -12.7312294718 0)
(0.00224447156747 -12.7303393435 0)
(0.00159557489552 -12.7297103962 0)
(0.00114804082505 -12.7292631825 0)
(0.000846111871721 -12.7289406021 0)
(0.000650215748314 -12.7287015794 0)
(0.000533014444462 -12.7285163708 0)
(0.00047727890099 -12.7283631397 0)
(0.000477821586406 -12.7282251645 0)
(0.000549540803722 -12.728086487 0)
(0.000707798285277 -12.7279201107 0)
(0.000848013990111 -12.7276925878 0)
(0.000145780768967 -12.7274082746 0)
(-0.000446351155237 -12.7277117141 0)
(-0.00023569897959 -12.7278713368 0)
(-2585.80511761 -12.7279200588 0)
(2576.43415391 -15.453980358 0)
(0.458850001977 -15.2817023193 0)
(0.663708285153 -14.9889289522 0)
(0.7652188599 -14.6431029875 0)
(0.780082734292 -14.2968248636 0)
(0.736361095408 -13.9801971146 0)
(0.659197546727 -13.7060273495 0)
(0.567989656818 -13.4767453887 0)
(0.47548672489 -13.2895001307 0)
(0.389121397587 -13.1392262037 0)
(0.312596215726 -13.0202753535 0)
(0.247219947068 -12.9272110391 0)
(0.192873941817 -12.8551533566 0)
(0.148663685592 -12.7998945454 0)
(0.113336549112 -12.7579015912 0)
(0.0855373321351 -12.7262660187 0)
(0.0639557187411 -12.7026316881 0)
(0.0474038758643 -12.6851164691 0)
(0.0348502004713 -12.6722359658 0)
(0.0254265156818 -12.662833387 0)
(0.0184200491663 -12.6560174268 0)
(0.0132575071846 -12.6511087399 0)
(0.00948586778443 -12.6475948603 0)
(0.00675272151185 -12.6450929762 0)
(0.00478779381344 -12.6433197409 0)
(0.00338649629608 -12.6420671946 0)
(0.00239584551476 -12.6411838594 0)
(0.00170277350658 -12.6405601103 0)
(0.0012246771 -12.6401170095 0)
(0.00090196726319 -12.639797884 0)
(0.000692339005748 -12.6395620313 0)
(0.000566529524356 -12.6393800585 0)
(0.000505998952993 -12.6392305086 0)
(0.000504945447108 -12.6390971788 0)
(0.000579251053866 -12.6389650387 0)
(0.000745978065913 -12.6388085754 0)
(0.000897669224059 -12.6385963613 0)
(0.000143052083518 -12.6383290333 0)
(-0.000492804864753 -12.6386313623 0)
(-0.000256547564789 -12.6387928795 0)
(-2583.26823634 -12.6388387301 0)
(2573.35917559 -15.4787040068 0)
(0.507309348041 -15.2896704764 0)
(0.729893176842 -14.9719351659 0)
(0.836500923352 -14.6019106562 0)
(0.847944567515 -14.236523609 0)
(0.796517439451 -13.9065298162 0)
(0.710231133423 -13.6237111044 0)
(0.610059617656 -13.3891455402 0)
(0.509479456036 -13.1988308844 0)
(0.416175503534 -13.0468677929 0)
(0.333864517715 -12.9270522437 0)
(0.263761950653 -12.8335961626 0)
(0.205615283788 -12.7614056538 0)
(0.158388326126 -12.7061469513 0)
(0.120694229175 -12.664215331 0)
(0.0910575464526 -12.6326631455 0)
(0.0680638437861 -12.609114048 0)
(0.0504372791777 -12.5916764329 0)
(0.0370732633808 -12.5788622858 0)
(0.0270440778043 -12.5695142405 0)
(0.0195890956464 -12.5627418742 0)
(0.0140970957872 -12.5578673196 0)
(0.0100853941072 -12.5543797308 0)
(0.00717867712336 -12.5518978353 0)
(0.005089199952 -12.5501396489 0)
(0.00359920405879 -12.5488983689 0)
(0.0025458884354 -12.5480234741 0)
(0.00180894488114 -12.5474061201 0)
(0.00130048607506 -12.5469680033 0)
(0.000957107497234 -12.546652973 0)
(0.000733780848196 -12.5464207716 0)
(0.00059931899527 -12.5462424136 0)
(0.000533854845267 -12.5460968681 0)
(0.000530915571956 -12.5459684975 0)
(0.000607261481993 -12.5458432803 0)
(0.000781533756257 -12.545697412 0)
(0.000943922410952 -12.545501802 0)
(0.000138780559743 -12.5452534741 0)
(-0.000539120392276 -12.5455516067 0)
(-0.000277172539933 -12.5457135642 0)
(-2580.74959129 -12.545755299 0)
(2570.28047901 -15.5095385047 0)
(0.560203770164 -15.3012777108 0)
(0.801260249205 -14.9554127367 0)
(0.912301171272 -14.5587625281 0)
(0.91915890228 -14.1728580253 0)
(0.858923596327 -13.828835652 0)
(0.762674401935 -13.5371336131 0)
(0.652965700832 -13.2972607641 0)
(0.543942274335 -13.1039422125 0)
(0.443477125716 -12.9503843264 0)
(0.355250541802 -12.8298001107 0)
(0.280349265046 -12.7360390717 0)
(0.218363784078 -12.6637899739 0)
(0.168101750148 -12.6085929607 0)
(0.128033310265 -12.5667727908 0)
(0.0965575887451 -12.5353442252 0)
(0.0721530612677 -12.5119123027 0)
(0.0534542283007 -12.4945773984 0)
(0.0392826389436 -12.4818491536 0)
(0.028650598011 -12.4725707139 0)
(0.0207494333416 -12.4658534537 0)
(0.0149299358562 -12.4610217413 0)
(0.0106797646464 -12.4575669714 0)
(0.00760073789165 -12.4551099138 0)
(0.00538768710429 -12.4533703483 0)
(0.0038097312578 -12.4521429461 0)
(0.00269429527092 -12.45127839 0)
(0.00191386766848 -12.4506688057 0)
(0.00137530651965 -12.4502366684 0)
(0.00101141359221 -12.4499264587 0)
(0.000774450875427 -12.4496984465 0)
(0.000631310237815 -12.4495241164 0)
(0.000560782179407 -12.4493829141 0)
(0.000555663002839 -12.4492598149 0)
(0.000633468161038 -12.4491418859 0)
(0.00081427372729 -12.4490072528 0)
(0.000986456794459 -12.4488294557 0)
(0.000133091134964 -12.4486019449 0)
(-0.000584822894081 -12.4488926292 0)
(-0.000297286026467 -12.4490533136 0)
(-2578.24994257 -12.4490896099 0)
(2567.19701235 -15.5474964392 0)
(0.61813450163 -15.3171280276 0)
(0.87839621339 -14.9395595611 0)
(0.99301186564 -14.5136836638 0)
(0.99392994274 -14.1058553656 0)
(0.923662321893 -13.7472132347 0)
(0.816546110995 -13.4464745697 0)
(0.696697897765 -13.201339841 0)
(0.578854743573 -13.0051360436 0)
(0.471003923898 -12.8501171196 0)
(0.376733568656 -12.7288892263 0)
(0.296963978015 -12.6349314434 0)
(0.231104505988 -12.5627139836 0)
(0.177791762741 -12.5076523135 0)
(0.135343976277 -12.4660029021 0)
(0.102029644071 -12.4347452221 0)
(0.076217209154 -12.411467805 0)
(0.0564499090135 -12.3942648399 0)
(0.0414746002721 -12.3816451823 0)
(0.0302432177863 -12.3724537967 0)
(0.0218988901794 -12.3658049399 0)
(0.0157543922313 -12.3610261098 0)
(0.011267759608 -12.3576116702 0)
(0.00801800174848 -12.3551850197 0)
(0.00568259347964 -12.3534681702 0)
(0.00401759571497 -12.3522576343 0)
(0.00284071652659 -12.3514055842 0)
(0.00201728920444 -12.3508053346 0)
(0.00144895547155 -12.3503803056 0)
(0.00106475187671 -12.3500757333 0)
(0.000814249305492 -12.3498525085 0)
(0.000662425471659 -12.349682656 0)
(0.000586715147666 -12.3495461526 0)
(0.000579121220952 -12.3494286344 0)
(0.000657773903544 -12.3493183346 0)
(0.000844019797801 -12.3491955282 0)
(0.00102498398404 -12.3490366604 0)
(0.000126145858717 -12.3488315942 0)
(-0.000629394133529 -12.3491113953 0)
(-0.000316568677326 -12.3492688467 0)
(-2575.7699627 -12.3492983451 0)
(2564.10755412 -15.5937179128 0)
(0.681791145787 -15.3378662569 0)
(0.961949121977 -14.9245489531 0)
(1.07904201037 -14.4666675815 0)
(1.0724529881 -14.0355286343 0)
(0.9907997555 -13.6617643109 0)
(0.871849080673 -13.3519286382 0)
(0.741233406052 -13.1016536979 0)
(0.614186818612 -12.9027407611 0)
(0.498726489175 -12.7464366711 0)
(0.398287677046 -12.6247209151 0)
(0.313584313597 -12.5306973833 0)
(0.243819610061 -12.4586188398 0)
(0.18744396645 -12.4037790768 0)
(0.142614728542 -12.362369588 0)
(0.107464608156 -12.3313376167 0)
(0.0802491377049 -12.3082578339 0)
(0.0594187528456 -12.2912204748 0)
(0.043644847591 -12.2787354695 0)
(0.0318186464829 -12.2696511436 0)
(0.0230349707094 -12.2630859074 0)
(0.0165685898001 -12.2583714283 0)
(0.0118479826805 -12.255005884 0)
(0.00842943789338 -12.2526159807 0)
(0.00597316417757 -12.250926501 0)
(0.00422224845861 -12.2497362218 0)
(0.00298475521328 -12.2488991317 0)
(0.00211892339397 -12.2483099845 0)
(0.00152122677699 -12.247893334 0)
(0.0011169730097 -12.2475953131 0)
(0.000853066335017 -12.247377538 0)
(0.000692581419705 -12.2472126519 0)
(0.000611586506956 -12.2470812205 0)
(0.00060122660567 -12.2469695897 0)
(0.000680089391625 -12.2468672321 0)
(0.000870608566572 -12.2467567876 0)
(0.00105924360778 -12.2466178671 0)
(0.000118144143148 -12.2464366932 0)
(-0.000672273409856 -12.2467019872 0)
(-0.000334675977385 -12.2468540272 0)
(-2573.31022913 -12.2468753739 0)
(2561.01069551 -15.6494895393 0)
(0.751968293569 -15.3641763199 0)
(1.05263594846 -14.9105172566 0)
(1.17081592941 -14.4176676536 0)
(1.15491059687 -13.9618732595 0)