/*--------------------------------*- C++ -*----------------------------------*\
| =========                 |                                                 |
| \\      /  F ield         | OpenFOAM: The Open Source CFD Toolbox           |
|  \\    /   O peration     | Version:  2112                                  |
|   \\  /    A nd           | Website:  www.openfoam.com                      |
|    \\/     M anipulation  |                                                 |
\*---------------------------------------------------------------------------*/
FoamFile
{
    version     2.0;
    format      ascii;
    arch        "LSB;label=32;scalar=64";
    class       volScalarField;
    location    "0.4";
    object      gradTx;
}
// * * * * * * * * * * * * * * * * * * * * * * * * * * * * * * * * * * * * * //

dimensions      [0 -1 0 1 0 0 0];

internalField   nonuniform List<scalar> 
1681
(
2622.46500531
0.0111556344285
0.0167131426021
0.0200500829457
0.021264787313
0.0208107562867
0.0192006655302
0.016951797593
0.014465603115
0.0120150808528
0.00976234592624
0.00778740827563
0.00611509282005
0.00473646025892
0.0036241822527
0.00274278749975
0.00205504195365
0.00152562239419
0.00112299229224
0.000820138793381
0.000594626018767
0.000428268421867
0.000306620494161
0.000218405021788
0.000154952072593
0.000109687888291
7.76914798526e-05
5.53236752973e-05
3.99257655325e-05
2.95812439243e-05
2.29334602062e-05
1.90570748559e-05
1.74000979093e-05
1.78268747156e-05
2.06072540204e-05
2.52919419215e-05
2.65311655493e-05
1.00605443354e-05
-2.8582769183e-06
-5.89695901388e-06
-2622.66009101
2619.39507494
0.0335459627596
0.0502429016356
0.0602586406642
0.0638897718088
0.0625067284274
0.0576560146946
0.0508923993823
0.0434210910232
0.0360606557801
0.029296582471
0.0233680300284
0.0183487670322
0.0142114638534
0.0108737896221
0.00822910753432
0.00616557680686
0.00457714383353
0.00336914926843
0.00246052549659
0.00178394806475
0.00128485060363
0.000919890916777
0.000655233987623
0.000464867973879
0.000329070282344
0.000233077075498
0.00016597021555
0.000119773113506
8.87358974818e-05
6.87882176664e-05
5.71528334494e-05
5.21705858313e-05
5.34353025376e-05
6.18012836898e-05
7.60757821417e-05
8.03068930103e-05
2.97365811646e-05
-1.01497538727e-05
-1.75059834496e-05
-2619.98094652
2616.32531718
0.0561742564111
0.0840853982667
0.100792850798
0.106800866662
0.104426041816
0.0962732344913
0.0849437935991
0.072449208677
0.0601522937287
0.0488593165463
0.0389659648466
0.0305928308715
0.0236926603591
0.0181270837657
0.0137176314868
0.010277441113
0.00762947763947
0.00561581018376
0.00410122959926
0.00297347267059
0.00214156322304
0.00153324549691
0.00109211667522
0.000774816903932
0.000548470898432
0.000388469403954
0.000276613494659
0.000199607333286
0.000147866631986
0.000114606179454
9.51935291736e-05
8.68536857096e-05
8.89107706245e-05
0.000102917653139
0.000127343272335
0.000135942002735
4.8238474707e-05
-2.17365874335e-05
-2.88883173499e-05
-2617.30382023
2613.25583354
0.0792022043191
0.118455512042
0.141871720506
0.150189103369
0.146717481007
0.135159686159
0.119179154547
0.101597734185
0.0843201824818
0.0684691510798
0.0545924647208
0.0428540012352
0.0331840275955
0.0253864136459
0.0192097494486
0.0143914631449
0.0106831225766
0.00786327927169
0.00574243914448
0.00416331739839
0.00299848030476
0.00214673081028
0.00152908191232
0.00108481579965
0.00076789821956
0.000543870340086
0.00038724951093
0.000279418421583
0.000206956585551
0.000160362063752
0.000133142907577
0.000121397625307
0.000124178757099
0.000143858251023
0.000179006743393
0.000193528918376
6.53000639938e-05
-3.8384487049e-05
-4.08725079759e-05
-2614.63005181
2610.18670733
0.102795968488
0.153573581282
0.183717397518
0.1942464288
0.189529600448
0.174421817305
0.153670560745
0.130913434682
0.108593684789
0.0881440559106
0.0702583105239
0.0551386487199
0.0426892891456
0.0326539406477
0.0247067121064
0.0185083668151
0.0137384988712
0.0101118014931
0.0073842974347
0.00535356611536
0.00385565060222
0.00276037458547
0.00196614456878
0.00139487133415
0.000987353246448
0.000699276364095
0.000497870427845
0.00035919369849
0.000265987072192
0.000206029379024
0.000170964181947
0.00015575172118
0.00015916760409
0.000184513451396
0.000230876960377
0.000252862557249
8.08105913628e-05
-6.00476600606e-05
-5.39363500187e-05
-2611.96097105
2607.11799715
0.127128237553
0.189666846198
0.226556504794
0.239166275608
0.23301061211
0.214164781384
0.188488555674
0.160441671124
0.133001019503
0.107901124971
0.0859736322351
0.0674526658285
0.0522118175962
0.0399315670382
0.0302095773305
0.0226287314857
0.0167959177771
0.0123615394192
0.00902688548488
0.00654425570417
0.00471308758189
0.00337417820371
0.002403299981
0.00170497580929
0.00120682649831
0.000854676391695
0.000608463021621
0.000438916731346
0.000324936864765
0.000251579991759
0.000208619636148
0.000189865175284
0.000193806270331
0.000224769829662
0.000282728430517
0.000313603691076
9.47287159856e-05
-8.62913288946e-05
-6.81966755226e-05
-2609.29789398
2604.0497301
0.152380435789
0.226971386545
0.270621445707
0.28514405901
0.277308225546
0.254492021784
0.223701686638
0.19022599121
0.157568936924
0.127756330723
0.101747727719
0.0798013342562
0.0617545371244
0.047220863916
0.0357191564285
0.0267529515455
0.0198555510234
0.0146125500976
0.0106702044983
0.00773536284225
0.00557075950441
0.00398810930179
0.00284051846859
0.00201510313386
0.00142629508865
0.00101004966579
0.000719007189083
0.00051856628524
0.000383781498927
0.00029698369691
0.000246070358165
0.000223686662567
0.000228023477199
0.000264511675064
0.000334319445316
0.000375335818851
0.000107041087591
-0.00011654902309
-8.35965411571e-05
-2606.64211892
2600.98189457
0.178745082975
0.265734293984
0.316151693008
0.332377576386
0.322569410212
0.29550479379
0.25937600145
0.220307694831
0.182322375938
0.147724265516
0.117588871445
0.0921891840853
0.0713198194475
0.0545229937519
0.0412359560323
0.0308811925543
0.0229173975898
0.0168647598606
0.0123141568231
0.00892678965825
0.00642857867412
0.00460209378088
0.00327773944222
0.00232520450347
0.00164571958864
0.00116536350759
0.000829474348718
0.00059811521722
0.000442492525348
0.00034220775793
0.000283275968647
0.000257164092743
0.000261747296175
0.000303621291424
0.00038540086465
0.00043759763595
0.00011773854345
-0.000150256866669
-0.000100028192845
-2603.99492218
2597.9144326
0.206428367492
0.306216038673
0.363395071299
0.381067300879
0.3689400641
0.337301614588
0.295574498262
0.250725370408
0.207284102574
0.167817870074
0.133504113366
0.104619845004
0.080909373193
0.0618386275211
0.0467601155864
0.0350133438609
0.0259812477347
0.0191179370421
0.0139585253073
0.0101183481951
0.00728638982717
0.00521600718402
0.00371486505792
0.00263520376657
0.00186504067419
0.0013205709119
0.000939825733437
0.000677529290756
0.000501036711908
0.000387216394832
0.000320194334764
0.00029024445739
0.000294905013853
0.000341979168996
0.000435720738248
0.000499905155044
0.000126805533695
-0.000186906673633
-0.000117386347872
-2601.35755357
2594.8472319
0.235653008128
0.348693037382
0.412609035329
0.431416558619
0.416564573023
0.379977633078
0.332356525549
0.28151440195
0.232474330929
0.188048150175
0.14949906896
0.117095890371
0.0905241272859
0.0691678568306
0.0522913407377
0.0391489679358
0.0290466444302
0.0213716626741
0.0156029511505
0.0113097437624
0.00814395770561
0.00582966548597
0.0041517534418
0.00294499249548
0.00208417556005
0.00147560799004
0.00105001059101
0.000756765916406
0.000559375195033
0.000431970248745
0.000356781276291
0.000322873711851
0.000327423159415
0.000379464314999
0.000485027228832
0.000561767758516
0.000134218699518
-0.000226054698149
-0.000135580379057
-2598.73123165
2591.78011743
0.266661486848
0.393460448306
0.464061939214
0.483631573365
0.465585242886
0.423623910346
0.369777128925
0.312706446369
0.257910326975
0.208423882304
0.165577701092
0.129618674594
0.100164108698
0.0765101012932
0.057828832789
0.0432872465226
0.0321128422883
0.023625299274
0.0172469102881
0.0125005571887
0.00900095382267
0.00644281531796
0.0045882115229
0.00325442476234
0.00230301423952
0.00163039128621
0.00115996428042
0.000835772834823
0.000617462590403
0.000476425810589
0.000392990246213
0.000354996678289
0.000359227659638
0.000415954796078
0.00053307077006
0.000622700025284
0.000139950889831
-0.000267309829976
-0.000154526849652
-2596.11713862
2588.7128425
0.299719744461
0.440835227241
0.518034284951
0.537921355587
0.516141585151
0.468326601018
0.407886341262
0.344328880449
0.283605995594
0.228951308743
0.18174209404
0.142188164082
0.109828314676
0.0838640112159
0.0633712142452
0.0474269236173
0.0351787639778
0.025877957676
0.0188896883189
0.0136902260144
0.00985694246314
0.00705512362359
0.00502398746455
0.00356331165661
0.00252141552957
0.00178481496099
0.00126960628727
0.000914486732395
0.000675246052741
0.000520534828373
0.000428772014967
0.000386556975908
0.000390244074432
0.00045132843109
0.00057960585595
0.000682230344855
0.000143977803382
-0.000310314477016
-0.000174136221298
-2593.51641496
2585.6450794
0.335121445615
0.491159486098
0.574819931638
0.59449740625
0.568369433878
0.514166025696
0.446728413081
0.376404217162
0.309571451289
0.249633822583
0.197992220059
0.154802761911
0.119514579556
0.0912273656154
0.0689164504475
0.0515662452722
0.0382429541435
0.0281284619535
0.0205303539872
0.0148780246033
0.0107113659041
0.0076661667782
0.00545876272136
0.00387141552313
0.00273920294493
0.00193874784934
0.00137883814693
0.000992831806084
0.000732664309196
0.000564243686264
0.000464074330988
0.000417496961078
0.000420397900149
0.000485463627024
0.0006243926102
0.000739906960838
0.000146285449357
-0.000354724681793
-0.000194299605576
-2590.93015373
2582.57640942
0.373192939316
0.544804199655
0.634727238621
0.653573198492
0.622399871175
0.561215625168
0.486340981051
0.408949491739
0.335812573498
0.270471643398
0.21432569892
0.167459126539
0.129219436284
0.0985969656657
0.0744617673822
0.0557028962785
0.0413035308574
0.0303753124382
0.0221677312483
0.0160630432335
0.011563528901
0.00827541918157
0.00589214372159
0.00417844396643
0.00295616040047
0.00209203040812
0.00148754130312
0.00107071826945
0.000789646645601
0.00060749275916
0.000498841581299
0.000447757693974
0.000449614919185
0.000518240290015
0.000667198222452
0.000795302002901
0.000146877331916
-0.000400192419179
-0.000214878628314
-2588.35939462
2579.50631213
0.414299066893
0.602173310479
0.698080105633
0.715363392945
0.678357936626
0.60954078824
0.5267541739
0.441975619027
0.362330548092
0.291461484811
0.23073755128
0.180151985051
0.138937973049
0.105968523829
0.0800035658155
0.0598339338725
0.044358134721
0.0326166469583
0.0238003700087
0.0172441662141
0.0124125824852
0.00888224137972
0.00632365324256
0.00448404363206
0.00317202776137
0.00224447156747
0.00159557489552
0.00114804082505
0.000846111871721
0.000650215748314
0.000533014444462
0.00047727890099
0.000477821586406
0.000549540803722
0.000707798285277
0.000848013990111
0.000145780768967
-0.000446351155237
-0.00023569897959
-2585.80511761
2576.43415391
0.458850001977
0.663708285153
0.7652188599
0.780082734292
0.736361095408
0.659197546727
0.567989656818
0.47548672489
0.389121397587
0.312596215726
0.247219947068
0.192873941817
0.148663685592
0.113336549112
0.0855373321351
0.0639557187411
0.0474038758643
0.0348502004713
0.0254265156818
0.0184200491663
0.0132575071846
0.00948586778443
0.00675272151185
0.00478779381344
0.00338649629608
0.00239584551476
0.00170277350658
0.0012246771
0.00090196726319
0.000692339005748
0.000566529524356
0.000505998952993
0.000504945447108
0.000579251053866
0.000745978065913
0.000897669224059
0.000143052083518
-0.000492804864753
-0.000256547564789
-2583.26823634
2573.35917559
0.507309348041
0.729893176842
0.836500923352
0.847944567515
0.796517439451
0.710231133423
0.610059617656
0.509479456036
0.416175503534
0.333864517715
0.263761950653
0.205615283788
0.158388326126
0.120694229175
0.0910575464526
0.0680638437861
0.0504372791777
0.0370732633808
0.0270440778043
0.0195890956464
0.0140970957872
0.0100853941072
0.00717867712336
0.005089199952
0.00359920405879
0.0025458884354
0.00180894488114
0.00130048607506
0.000957107497234
0.000733780848196
0.00059931899527
0.000533854845267
0.000530915571956
0.000607261481993
0.000781533756257
0.000943922410952
0.000138780559743
-0.000539120392276
-0.000277172539933
-2580.74959129
2570.28047901
0.560203770164
0.801260249205
0.912301171272
0.91915890228
0.858923596327
0.762674401935
0.652965700832
0.543942274335
0.443477125716
0.355250541802
0.280349265046
0.218363784078
0.168101750148
0.128033310265
0.0965575887451
0.0721530612677
0.0534542283007
0.0392826389436
0.028650598011
0.0207494333416
0.0149299358562
0.0106797646464
0.00760073789165
0.00538768710429
0.0038097312578
0.00269429527092
0.00191386766848
0.00137530651965
0.00101141359221
0.000774450875427
0.000631310237815
0.000560782179407
0.000555663002839
0.000633468161038
0.00081427372729
0.000986456794459
0.000133091134964
-0.000584822894081
-0.000297286026467
-2578.24994257
2567.19701235
0.61813450163
0.87839621339
0.99301186564
0.99392994274
0.923662321893
0.816546110995
0.696697897765
0.578854743573
0.471003923898
0.376733568656
0.296963978015
0.231104505988
0.177791762741
0.135343976277
0.102029644071
0.076217209154
0.0564499090135
0.0414746002721
0.0302432177863
0.0218988901794
0.0157543922313
0.011267759608
0.00801800174848
0.00568259347964
0.00401759571497
0.00284071652659
0.00201728920444
0.00144895547155
0.00106475187671
0.000814249305492
0.000662425471659
0.000586715147666
0.000579121220952
0.000657773903544
0.000844019797801
0.00102498398404
0.000126145858717
-0.000629394133529
-0.000316568677326
-2575.7699627
2564.10755412
0.681791145787
0.961949121977
1.07904201037
1.0724529881
0.9907997555
0.871849080673
0.741233406052
0.614186818612
0.498726489175
0.398287677046
0.313584313597
0.243819610061
0.18744396645
0.142614728542
0.107464608156
0.0802491377049
0.0594187528456
0.043644847591
0.0318186464829
0.0230349707094
0.0165685898001
0.0118479826805
0.00842943789338
0.00597316417757
0.00422224845861
0.00298475521328
0.00211892339397
0.00152122677699
0.0011169730097
0.000853066335017
0.000692581419705
0.000611586506956
0.00060122660567
0.000680089391625
0.000870608566572
0.00105924360778
0.000118144143148
-0.000672273409856
-0.000334675977385
-2573.31022913
2561.01069551
0.751968293569
1.05263594846
1.17081592941
1.15491059687
1.06038232111
0.928568233584
0.786535473192
0.649898148947
0.5266078931
0.419881426219
0.330184393077
0.25648816728
0.197041613102
0.149832268305
0.112851994887
0.0842406375338
0.0623543818868
0.0457884665037
0.0333731302183
0.0241548332327
0.0173703968998
0.0124188491424
0.0088338783428
0.00625854525463
0.00442306959128
0.00312596398151
0.00221844874032
0.00159188975181
0.00116791106445
0.000890781551809
0.000721688975544
0.000635327572866
0.000621918907813
0.000700334332588
0.000893892806259
0.00108900286137
0.000109321828088
-0.000712860932046
-0.000351246009637
-2570.87121682
2557.90482095
0.829585602342
1.15125085524
1.26877080979
1.24146789533
1.13243326479
0.986668541038
0.832552244683
0.685937410805
0.554603264014
0.441477558654
0.346734010132
0.269085981992
0.206565462464
0.156981384118
0.118179847536
0.0881823705793
0.0652495559462
0.0478998881673
0.0349024223225
0.025255268204
0.0181574097487
0.0129785747722
0.00923001013291
0.00653777828257
0.00461936453629
0.00326384254547
0.00231550658613
0.00166068797605
0.00121738273127
0.000927263407275
0.000749652912992
0.000657868200229
0.000641141707996
0.000718438667103
0.000913742948397
0.00111405598223
9.99491138748e-05
-0.000750523446376
-0.000365908245182
-2568.45329086
2554.78808639
0.915712139188
1.25867411209
1.37335287687
1.33226689955
1.20694882926
1.04609290217
0.879215640425
0.722241683929
0.582659401104
0.463032730378
0.363198425415
0.281585428597
0.215993650891
0.164044846758
0.123434655783
0.0920638056441
0.0680961233477
0.0499728523969
0.0364017561353
0.0263326784898
0.0189269383451
0.013525165914
0.00961636840397
0.00680979560152
0.00481036078268
0.00339783547466
0.00240969962133
0.00172733830471
0.00126518664681
0.000962368779906
0.000776371631247
0.000679136763376
0.00065884288509
0.000734343811858
0.000930048703533
0.00113422364073
9.03273913525e-05
-0.000784601918497
-0.000378293304862
-2566.05669933
2551.6583953
1.01159598987
1.3758815643
1.48501177425
1.42741971205
1.28389408084
1.10675999329
0.92644028769
0.758735891135
0.610714437693
0.484497276664
0.379538186285
0.29395530648
0.225301573562
0.171003314518
0.128601280812
0.095873160331
0.0708849768108
0.0520003748066
0.0378658210009
0.0273830621642
0.0196759943309
0.0140564110638
0.00999133064667
0.00707341641492
0.00499520529042
0.00352733047332
0.00250059074559
0.00179153010371
0.00131110289382
0.000995942650324
0.000801736965537
0.000699060156459
0.000674975055509
0.000748003961383
0.000942720825773
0.0011493522306
8.07850441594e-05
-0.00081442097225
-0.000388043603205
-2563.68156643
2548.51337162
1.11870038468
1.50395445569
1.60419260134
1.52700045087
1.36319842323
1.16856213509
0.974122543125
0.795332320412
0.638697566022
0.505815021462
0.395708977893
0.306160718002
0.234461784157
0.177835251981
0.133662891022
0.0995973513473
0.0736060159743
0.0539747192071
0.0392887424061
0.0284019985124
0.0204012813557
0.0145698743545
0.0103531123841
0.00732734399108
0.00517296268317
0.00365165723032
0.0025877023531
0.00185292480574
0.00135489271608
0.00102781790669
0.000825634051006
0.000717563786048
0.000689495998026
0.000759387456142
0.000951693088656
0.00115931300787
7.1672311652e-05
-0.000839299753438
-0.000394824629232
-2561.32788622
2545.35032946
1.23874790803
1.64408927402
1.73132491183
1.63103577509
1.44475085937
1.23136323685
1.02213964024
0.831930250706
0.666528836392
0.526923139224
0.411661512072
0.318162974617
0.243443916058
0.184516865592
0.138600910954
0.103221955314
0.0762481182275
0.0558873765477
0.0406640672281
0.0293846380229
0.0210991884844
0.015062891367
0.0106997646036
0.00757016414279
0.00534261439763
0.00377008697777
0.00267051610009
0.00191115580728
0.00139629847465
0.0010578153161
0.000847941296483
0.000734571571088
0.000702369030726
0.000768478211654
0.000956924527487
0.00116400104053
6.33552932255e-05
-0.000858563695523
-0.000398336501893
-2558.99551691
2542.16623889
1.37377475873
1.79760708709
1.86680778937
1.73949389069
1.52839509552
1.29499688853
1.07034900238
0.86841570339
0.69411904363
0.547752077926
0.427341460629
0.329919536398
0.252214629335
0.191022059463
0.143394986254
0.106731182241
0.0787991195513
0.0577290517261
0.0419847551256
0.0303256971055
0.0217657872291
0.0155325676736
0.0110291732299
0.00780034523091
0.0055030589487
0.00388183283582
0.00274847327497
0.00196582878099
0.00143504388621
0.00108574368849
0.00086853043071
0.000750005948776
0.000713563337886
0.000775277227873
0.000958402026388
0.00116333391977
5.62092416669e-05
-0.000871556582496
-0.000398326152207
-2556.68417604
2538.9576872
1.52619753473
1.96596155224
2.01098988427
1.8522719632
1.61392462523
1.35926468397
1.11858776383
0.904661341758
0.721369713744
0.568225551947
0.44268943961
0.341383990171
0.260737587776
0.197322414883
0.148022967402
0.110107863907
0.0812458071235
0.0594896596178
0.043243177073
0.0312194583156
0.0223968327682
0.0159757805341
0.0113390609526
0.00801623989975
0.00565311344836
0.00398605109412
0.00282097579984
0.0020165224495
0.00147083459563
0.00111140024206
0.000887266691973
0.000763787880172
0.000723054198784
0.000779804142318
0.00095614337901
0.00115725019757
5.06112379817e-05
-0.000877652075068
-0.000394599608649
-2554.3934367
2535.72083502
1.69889566054
2.15074437702
2.16414300981
1.96918193861
1.70107798355
1.42393486932
1.16667254338
0.940526540439
0.748173202941
0.588260613039
0.457641050872
0.352506071415
0.268973470138
0.203387196915
0.152460914988
0.113333459307
0.0835739253654
0.061158331606
0.0444311220573
0.0320597768204
0.0229877699004
0.0163891841588
0.0116269916962
0.00821608875424
0.00579151654725
0.00408184349081
0.00288738798065
0.00206278987457
0.00150335908911
0.00113457122131
0.00090400913568
0.000775836857727
0.000730823082959
0.000782098836249
0.00095020095651
0.00114570754527
4.69323496166e-05
-0.000876263683357
-0.000387034231599
-2552.12272494
2532.4513663
1.8953133954
2.35368643626
2.32642754617
2.08993489741
1.78953442614
1.48874141975
1.21439951477
0.975857645401
0.774412919991
0.607767806865
0.472126986753
0.363231734665
0.276880019576
0.209183391336
0.156683129106
0.116388079209
0.085768197053
0.0627234338755
0.0455398128381
0.0328400938176
0.0235337442608
0.0167692188937
0.0118903780013
0.00839802616659
0.00591693292507
0.00416826061831
0.00294703902879
0.00210416030894
0.00153229001119
0.0011550327678
0.000918611096993
0.000786070909856
0.000736857574136
0.000782223027464
0.000940666170053
0.0011286806596
4.55293087275e-05
-0.000866851942928
-0.000375591509214
-2549.87131851
2529.14443142
2.11958640526
2.57665194775
2.49784747718
2.21412425915
1.87891036268
1.55338365233
1.26154481672
1.01048844299
0.799963681218
0.626651421448
0.486073202969
0.373503276666
0.284412134765
0.214675774782
0.160662205213
0.1192505317
0.0878123609084
0.0641725985594
0.0465599316342
0.0335534575105
0.0240296192394
0.0171121246687
0.0121264915461
0.00856008838904
0.00602795943694
0.00424430651956
0.00299922645175
0.00214014163383
0.00155728589195
0.00117255208506
0.000930920815818
0.000794406601176
0.000741151030088
0.000780261788191
0.000927674982444
0.0011061590455
4.67355961573e-05
-0.000848927302097
-0.000360329308581
-2547.63834725
2525.79458233
2.37669921525
2.8216219843
2.6781923781
2.34120844654
1.96875695774
1.61752648064
1.30786534167
1.04424085329
0.82469220502
0.64480983243
0.499401163772
0.383259515767
0.291522005666
0.219827020569
0.164369118422
0.121898390263
0.0896892269288
0.0654927686609
0.0474816564219
0.0341925521707
0.024469998979
0.017413958974
0.0123324770078
0.00870022409182
0.00612313301577
0.00430894453409
0.00304322031576
0.0021702234401
0.00157799331179
0.00118688889396
0.000940782258573
0.000800759019216
0.000743701901919
0.000776324872908
0.000911414756896
0.00107814488372
5.08516905021e-05
-0.000822047007308
-0.000341414808201
-2545.42279507
2522.3956988
2.67268156356
3.09066203247
2.86696307536
2.47049404819
2.05855940003
1.68080140492
1.35309993614
1.07692585894
0.848457749887
0.662135948176
0.512028162195
0.392436030077
0.298159296143
0.224597842028
0.167773337749
0.124308085585
0.0913807503267
0.0666702574708
0.0482947083515
0.0347497356463
0.0248492577268
0.0176706195491
0.012505369386
0.00881630741338
0.00620094039266
0.00436110444179
0.00307826843931
0.00219388074189
0.00159404951921
0.00119779720232
0.000948036117943
0.000805041766455
0.000744512609363
0.000770547662573
0.000892132810386
0.00104465143484
5.81338890352e-05
-0.000785804035902
-0.000319136449829
-2543.22350377
2518.94090456
3.01485385808
3.38586612713
3.06327700947
2.60112114313
2.14773842257
1.74280830448
1.39697103798
1.10834467502
0.871112896323
0.678517755632
0.523867716616
0.400965455718
0.304271374724
0.228947174464
0.170842971194
0.12645502182
0.09286812467
0.0676908228632
0.0489884106006
0.035217085529
0.0251615756686
0.0178778718759
0.0126421148418
0.00890615357796
0.00625982964382
0.00439969091257
0.00310360250316
0.00221057833349
0.00160508548401
0.0012050273908
0.000952521051358
0.000807166962151
0.000743587831196
0.00076309147288
0.000870147067161
0.00100570270114
6.87807674556e-05
-0.000739806052246
-0.000293915783555
-2541.0391788
2515.42247264
3.41213472879
3.70926706238
3.2657485562
2.73205334219
2.23565471548
1.80311805372
1.43918676631
1.13829016009
0.892504468944
0.693838965354
0.534830043146
0.408777845175
0.309803593645
0.232832395971
0.173544941918
0.128313717463
0.0941318943279
0.0685397565621
0.0495517586782
0.0355864540044
0.0254009812516
0.0180313814659
0.0127395950423
0.00896753702322
0.00629822354691
0.00442359323312
0.00311844505332
0.00221977579281
0.00161072941255
0.00120832860324
0.000954075129232
0.000807045280408
0.000740932069362
0.000754142836114
0.000845859292559
0.000961335494472
8.2915801794e-05
-0.000683642344231
-0.000266317269525
-2538.86839684
2511.83171899
3.8754272475
4.06269798065
3.47233872374
2.86207636116
2.32161687946
1.86127591163
1.47944347094
1.16654846064
0.912474590412
0.707979751547
0.544822601414
0.415801084163
0.314699615227
0.236209586395
0.175845194915
0.129857970429
0.0951520858556
0.0692019880784
0.0499735019508
0.0358495311522
0.0255613998045
0.0181267507894
0.0127946548804
0.00899821197767
0.00631453467889
0.00443169626724
0.00312201738229
0.00222093306815
0.00161061065555
0.0012074514463
0.000952537549317
0.000804586073024
0.000736546294954
0.000743911224716
0.000819771333808
0.000911605763654
0.000100564018172
-0.000616837122933
-0.000237054183493
-2536.70961546
2508.15888433
4.41810497436
4.44758482661
3.68016779381
2.98981070298
2.40489347581
1.91680553359
1.5174287412
1.19290087427
0.930861853801
0.720817580173
0.553750709202
0.421961363873
0.318901783172
0.239033822633
0.177708932818
0.131061046172
0.095908357447
0.0696622025972
0.0502422358068
0.0359979162691
0.0256367081288
0.0181595605726
0.0128041333717
0.00899593529708
0.00630718211458
0.00442289254354
0.00311354819384
0.00221351662299
0.00160436401491
0.00120215095311
0.000947750591656
0.00079969766411
0.0007304235308
0.000732624452845
0.000792504802023
0.000856601895721
0.00012161979197
-0.000538788476119
-0.000206987141509
-2534.56118454
2504.39300485
5.05662487776
4.8646411072
3.88528370808
3.11374646895
2.48472946361
1.96921331809
1.55282487426
1.21712590779
0.947502594611
0.732228115565
0.561518219341
0.427183703665
0.322351535164
0.241259507393
0.179100878511
0.13189588708
0.0963801650063
0.0699049717062
0.0503465035911
0.0360231965116
0.0256207944907
0.0181254150591
0.0127648973901
0.00895849134857
0.00627460956954
0.00439609534636
0.00309228295183
0.00219700605647
0.00159163436695
0.00119218979549
0.000939561859749
0.000792287932966
0.000722543145001
0.000720520788976
0.000764824384916
0.000796469072563
0.000145802108815
-0.000448694186353
-0.000177108917151
-2532.42135952
2500.5217738
5.81130172763
5.31342527418
4.08237848015
3.23231168007
2.56036676326
2.01799263031
1.58531281507
1.23900149697
0.962232238124
0.742086193523
0.568028250175
0.431392517715
0.324989851684
0.242840727458
0.17998556145
0.132335340632
0.0965469428852
0.0699148953987
0.0502749070945
0.0359170319303
0.0255076233271
0.0180199906695
0.0126738778622
0.00888371859647
0.0062153047307
0.00435025263409
0.00305749382022
0.00217090111614
0.00157208154455
0.00117734167763
0.000927826786469
0.000782265376892
0.000712863743849
0.000707836422407
0.000737664674425
0.000731450533199
0.000172592949998
-0.000345469202764
-0.000148505775979
-2530.28831628
2496.53139836
6.70728825528
5.79170567045
4.26444490675
3.34399008042
2.63106767663
2.06262724767
1.61457661318
1.25830734293
0.974886692218
0.750266846992
0.573183959056
0.434512217519
0.326757734844
0.2437316365
0.180327623727
0.132352403214
0.0963882968314
0.0696767534594
0.0500162241147
0.0356712457514
0.025291303769
0.0178390874149
0.012528107885
0.00876953755635
0.00612781952081
0.00428436158728
0.00300849000248
0.0021347289862
0.00154538541391
0.0011573948723
0.00091241140824
0.0007695409247
0.000701314535682
0.00069478661144
0.00071215973487
0.000661953993943
0.000201154237864
-0.000227665707369
-0.000122279704335
-2528.16016742
2492.40645956
7.77581780812
6.29455673785
4.42236679066
3.44751062292
2.69613817055
2.10259317166
1.64030850665
1.2748273043
0.985303750531
0.756646369242
0.576889346695
0.436467840948
0.327596709984
0.243886856714
0.18009214134
0.131920476002
0.0958842063375
0.0691756640322
0.0495595314006
0.0352779185982
0.0249661610051
0.0175786823142
0.0123247622339
0.00861397966937
0.0060107909751
0.00419748355681
0.00294462836127
0.00208805174886
0.00151125104031
0.00113215580041
0.000893195395373
0.000754030883717
0.000687785199289
0.000681538332702
0.00068967358026
0.000588654603629
0.000230219579811
-9.34170972963e-05
-9.94085899937e-05
-2526.03497975
)
;

boundaryField
{
    inout
    {
        type            empty;
    }
    top
    {
        type            calculated;
        value           nonuniform List<scalar> 
41
(
2492.40645956
7.77581780812
6.29455673785
4.42236679066
3.44751062292
2.69613817055
2.10259317166
1.64030850665
1.2748273043
0.985303750531
0.756646369242
0.576889346695
0.436467840948
0.327596709984
0.243886856714
0.18009214134
0.131920476002
0.0958842063375
0.0691756640322
0.0495595314006
0.0352779185982
0.0249661610051
0.0175786823142
0.0123247622339
0.00861397966937
0.0060107909751
0.00419748355681
0.00294462836127
0.00208805174886
0.00151125104031
0.00113215580041
0.000893195395373
0.000754030883717
0.000687785199289
0.000681538332702
0.00068967358026
0.000588654603629
0.000230219579811
-9.34170972963e-05
-9.94085899937e-05
-2526.03497975
)
;
    }
    bottom
    {
        type            calculated;
        value           nonuniform List<scalar> 
41
(
2622.46500531
0.0111556344285
0.0167131426021
0.0200500829457
0.021264787313
0.0208107562867
0.0192006655302
0.016951797593
0.014465603115
0.0120150808528
0.00976234592624
0.00778740827563
0.00611509282005
0.00473646025892
0.0036241822527
0.00274278749975
0.00205504195365
0.00152562239419
0.00112299229224
0.000820138793381
0.000594626018767
0.000428268421867
0.000306620494161
0.000218405021788
0.000154952072593
0.000109687888291
7.76914798526e-05
5.53236752973e-05
3.99257655325e-05
2.95812439243e-05
2.29334602062e-05
1.90570748559e-05
1.74000979093e-05
1.78268747156e-05
2.06072540204e-05
2.52919419215e-05
2.65311655493e-05
1.00605443354e-05
-2.8582769183e-06
-5.89695901388e-06
-2622.66009101
)
;
    }
    frontback
    {
        type            empty;
    }
}


// ************************************************************************* //
