/*--------------------------------*- C++ -*----------------------------------*\
| =========                 |                                                 |
| \\      /  F ield         | OpenFOAM: The Open Source CFD Toolbox           |
|  \\    /   O peration     | Version:  2112                                  |
|   \\  /    A nd           | Website:  www.openfoam.com                      |
|    \\/     M anipulation  |                                                 |
\*---------------------------------------------------------------------------*/
FoamFile
{
    version     2.0;
    format      ascii;
    arch        "LSB;label=32;scalar=64";
    class       volScalarField;
    location    "0.4";
    object      gradTy;
}
// * * * * * * * * * * * * * * * * * * * * * * * * * * * * * * * * * * * * * //

dimensions      [0 -1 0 1 0 0 0];

internalField   nonuniform List<scalar> 
1681
(
-15.3891437495
-15.3104550355
-15.1656357636
-14.9756748143
-14.7640921455
-14.5499020187
-14.3475047219
-14.1656186176
-14.0082837371
-13.8761851469
-13.7679050539
-13.6808905049
-13.6121278624
-13.5585712057
-13.5173882418
-13.4860813463
-13.4625287666
-13.4449782525
-13.4320149355
-13.4225175447
-13.4156116141
-13.4106246743
-13.4070460189
-13.4044921172
-13.4026778239
-13.401393017
-13.400484033
-13.3998391742
-13.3993775636
-13.3990406798
-13.3987859779
-13.3985820714
-13.3984049283
-13.398234218
-13.3980486175
-13.3978221753
-13.3975417788
-13.397287985
-13.3973427932
-13.3973530252
-13.3974598079
-15.388874682
-15.309565971
-15.1637815721
-14.9727046927
-14.7600677328
-14.5450242959
-14.3419913052
-14.1596614511
-14.0020313251
-13.8697434233
-13.7613452608
-13.6742585702
-13.6054524779
-13.5518698799
-13.5106714774
-13.4793553724
-13.4557972575
-13.4382433766
-13.4252779812
-13.4157792871
-13.4088725272
-13.4038850538
-13.4003060532
-13.3977519288
-13.3959374949
-13.3946526047
-13.3937435799
-13.3930987151
-13.3926371308
-13.3923003072
-13.3920457039
-13.3918419436
-13.3916650216
-13.3914946757
-13.3913096021
-13.3910831237
-13.3907993454
-13.3905360695
-13.3906084558
-13.3906304611
-13.3907234126
-15.3883723057
-15.3078347156
-15.1600910979
-14.9667716636
-14.7520256987
-14.5352750058
-14.3309719358
-14.1477566485
-13.98953816
-13.8568734327
-13.7482405265
-13.6610105896
-13.592118353
-13.5384844186
-13.4972555343
-13.4659212985
-13.4423523247
-13.4247918668
-13.411822431
-13.4023212168
-13.3954128628
-13.3904243701
-13.3868447143
-13.3842901706
-13.3824754747
-13.3811904315
-13.380281335
-13.3796364652
-13.3791749385
-13.3788382387
-13.3785838351
-13.3783803694
-13.3782038847
-13.3780342342
-13.3778501674
-13.3776239494
-13.3773355126
-13.3770578393
-13.3771576952
-13.3771990129
-13.3772745278
-15.3877124258
-15.3053368259
-15.1546038654
-14.9578959108
-14.7399811318
-14.5206681001
-14.3144633387
-14.1299251861
-13.9708295029
-13.837604056
-13.7286225476
-13.6411803592
-13.5721608192
-13.51845127
-13.4771776753
-13.4458169856
-13.4222322722
-13.4046623571
-13.391687166
-13.3821824005
-13.3752718269
-13.3702819333
-13.36670139
-13.3641462879
-13.3623312505
-13.3610460157
-13.3601368388
-13.3594919809
-13.3590305541
-13.3586940491
-13.3584399519
-13.3582369331
-13.3580610986
-13.3578924429
-13.3577098145
-13.3574844639
-13.357192146
-13.3568998611
-13.3570292854
-13.3570914165
-13.3571545256
-15.3870127691
-15.3021691839
-15.147382603
-14.9461125131
-14.7239586815
-14.5012266519
-14.292493026
-14.1062011758
-13.9459460204
-13.8119814911
-13.7025418353
-13.6148216217
-13.5456359977
-13.4918282987
-13.4504970477
-13.4191025317
-13.3954979083
-13.37791619
-13.3649339323
-13.3554248893
-13.3485117006
-13.3435201978
-13.3399386642
-13.3373829608
-13.3355675739
-13.3342821608
-13.3333729325
-13.3327281305
-13.3322668649
-13.3319306389
-13.3316769635
-13.3314745493
-13.3312995799
-13.3311322116
-13.3309514423
-13.3307276537
-13.3304328339
-13.3301272798
-13.3302856906
-13.330366814
-13.3304223114
-15.386430547
-15.2984555708
-15.1385082105
-14.9314665445
-14.7039879695
-14.4769783935
-14.265094844
-14.0766273711
-13.9149392146
-13.7800645884
-13.6700629539
-13.5820032144
-13.5126158679
-13.4586897867
-13.417289628
-13.3858551703
-13.3622274064
-13.3446322467
-13.3316421457
-13.3221285037
-13.3152126103
-13.31021952
-13.3066370658
-13.3040808464
-13.3022651963
-13.3009796875
-13.3000704871
-13.2994258209
-13.2989648033
-13.298628958
-13.2983758312
-13.2981741864
-13.2980003003
-13.2978345117
-13.2976560209
-13.2974345206
-13.2971388085
-13.2968221543
-13.297007656
-13.2971046611
-13.297155957
-15.3861634186
-15.2943494559
-15.1280791915
-14.9140122169
-14.6801032504
-14.447955713
-14.2323092599
-14.041255651
-13.877872031
-13.7419255325
-13.6312652488
-13.5428098298
-13.4731890528
-13.4191272385
-13.3776490435
-13.3461701049
-13.32251715
-13.3049077996
-13.2919097509
-13.2823916973
-13.2754733943
-13.2704790276
-13.2668959388
-13.2643394497
-13.2625237415
-13.2612383062
-13.260329276
-13.2596848706
-13.2592242194
-13.2588888782
-13.2586364411
-13.2584357394
-13.2582631594
-13.2580992448
-13.2579234543
-13.2577049875
-13.2574100921
-13.2570850177
-13.257295043
-13.2574048454
-13.2574542006
-15.3864515562
-15.2900359416
-15.1162118976
-14.8938126809
-14.6523437697
-14.4141964716
-14.1941845769
-14.0001485076
-13.8348205188
-13.6976516116
-13.5862446905
-13.4973439148
-13.4274627623
-13.3732513611
-13.331688582
-13.300162543
-13.2764837862
-13.2588605815
-13.2458553026
-13.2363336467
-13.2294136986
-13.22441872
-13.220835547
-13.2182792306
-13.216463814
-13.2151787274
-13.2142700861
-13.2136261212
-13.2131659934
-13.2128313061
-13.2125797173
-13.2123801427
-13.2122090974
-13.2120473537
-13.2118746897
-13.2116600162
-13.2113676833
-13.2110371695
-13.2112688611
-13.2113889578
-13.2114378101
-15.3875801298
-15.2857332148
-15.103040504
-14.8709394978
-14.6207537924
-14.3757445867
-14.1507779784
-13.9533803902
-13.7858753579
-13.6473468546
-13.5351155829
-13.4457274313
-13.3755645953
-13.3211938999
-13.2795430561
-13.2479695845
-13.2242661326
-13.2066307076
-13.1936198984
-13.1840961935
-13.1771759268
-13.172181423
-13.1685990316
-13.1660435645
-13.1642289616
-13.1629446245
-13.1620366818
-13.1613934021
-13.1609340005
-13.1606001486
-13.1603495872
-13.1601513362
-13.1599820607
-13.1598227881
-13.1596536813
-13.159443573
-13.1591555495
-13.1588227223
-13.1590731487
-13.1592017115
-13.1592509097
-15.3898821584
-15.2816937233
-15.0887165617
-14.8454716752
-14.5853822221
-14.3326503127
-14.1021563281
-13.9010388339
-13.7311431748
-13.5911334541
-13.4780120528
-13.388103393
-13.3176441142
-13.263109245
-13.2213704367
-13.1897518762
-13.1660268506
-13.1483823629
-13.1353688779
-13.1258455517
-13.118926953
-13.1139345067
-13.110354133
-13.1078004661
-13.1059874007
-13.1047043611
-13.1037975328
-13.1031552592
-13.1026968401
-13.1023640415
-13.1021147107
-13.1019179944
-13.1017507312
-13.1015942333
-13.1014291179
-13.1012243552
-13.1009423678
-13.1006103808
-13.100876641
-13.1010123966
-13.1010623435
-15.3937418082
-15.2782052349
-15.0734081266
-14.8174942856
-14.5462818785
-14.2849703008
-14.0483968178
-13.8432254611
-13.6707477393
-13.5291530686
-13.415089416
-13.3246372757
-13.2538742905
-13.1991759072
-13.1573533536
-13.1256951353
-13.1019539861
-13.0843053568
-13.0712933883
-13.0617738818
-13.0548597025
-13.0498714706
-13.0462947787
-13.0437441799
-13.0419336086
-13.0406525841
-13.0397474087
-13.0391065492
-13.0386494303
-13.0383179451
-13.038070076
-13.0378751222
-13.0377101223
-13.0375567059
-13.0373960177
-13.0371973853
-13.0369231246
-13.0365950724
-13.036874329
-13.0370163713
-13.0370671083
-15.3995982533
-15.2755918688
-15.0572984595
-14.7870966798
-14.5035084974
-14.2327675154
-13.9895875424
-13.7800569386
-13.6048311216
-13.4615680847
-13.3465255001
-13.2555183833
-13.1844529052
-13.1295979467
-13.0877005509
-13.0560116251
-13.0322624627
-13.0146166313
-13.0016119034
-12.9921008179
-12.9851946849
-12.9802134809
-12.9766426245
-12.9740967236
-12.9722898685
-12.9710117698
-12.970108925
-12.969469987
-12.9690145556
-12.9686846921
-12.968438547
-12.9682456027
-12.9680831266
-12.9679331013
-12.9677772754
-12.9675855571
-12.9673206662
-12.9669995225
-12.9672889934
-12.9674365967
-12.9674878572
-15.4079502266
-15.2742151344
-15.0405842523
-14.7543702724
-14.457119484
-14.1761110578
-13.9258280539
-13.7116659371
-13.5335548549
-13.3885628807
-13.2725219654
-13.1809612074
-13.109603941
-13.0546063951
-13.012648333
-12.9809416228
-12.9571955673
-12.9395617595
-12.9265717329
-12.9170749857
-12.9101815182
-12.9052108996
-12.901648586
-12.8991094218
-12.8973078048
-12.8960337603
-12.8951340804
-12.8944976831
-12.8940444053
-12.8937165254
-12.8934724024
-12.8932817357
-12.8931220545
-12.8929757321
-12.8928252003
-12.8926411728
-12.8923872385
-12.8920758145
-12.8923727408
-12.8925252043
-12.8925764529
-15.4193614056
-15.2744749749
-15.0234732992
-14.719405853
-14.4071724292
-14.1150759196
-13.8572299155
-13.6382021068
-13.4571011114
-13.3103450975
-13.1933056274
-13.1012067864
-13.0295789713
-12.9744606707
-12.9324620038
-12.9007548796
-12.877026427
-12.8594164366
-12.8464505241
-12.8369755116
-12.830100444
-12.8251448035
-12.8215943611
-12.8190644305
-12.8172699085
-12.81600129
-12.8151057844
-12.8144726714
-12.8140221006
-12.8136966263
-12.8134548628
-12.813266766
-12.8131101623
-12.8129678563
-12.8128230438
-12.8126474704
-12.8124060155
-12.8121069352
-12.8124085389
-12.8125650676
-12.8126155357
-15.4344668017
-15.2768107814
-15.0061814884
-14.682290354
-14.353723382
-14.049742675
-13.7839172609
-13.5598330672
-13.375673882
-13.2271469014
-13.1091297616
-13.0165240398
-12.9446585209
-12.8894499634
-12.8474372743
-12.8157520461
-12.7920594506
-12.7744879338
-12.7615577255
-12.7521134937
-12.7452638034
-12.740328464
-12.7367939119
-12.734276221
-12.732491023
-12.7312294718
-12.7303393435
-12.7297103962
-12.7292631825
-12.7289406021
-12.7287015794
-12.7285163708
-12.7283631397
-12.7282251645
-12.728086487
-12.7279201107
-12.7276925878
-12.7274082746
-12.7277117141
-12.7278713368
-12.7279200588
-15.453980358
-15.2817023193
-14.9889289522
-14.6431029875
-14.2968248636
-13.9801971146
-13.7060273495
-13.4767453887
-13.2895001307
-13.1392262037
-13.0202753535
-12.9272110391
-12.8551533566
-12.7998945454
-12.7579015912
-12.7262660187
-12.7026316881
-12.6851164691
-12.6722359658
-12.662833387
-12.6560174268
-12.6511087399
-12.6475948603
-12.6450929762
-12.6433197409
-12.6420671946
-12.6411838594
-12.6405601103
-12.6401170095
-12.639797884
-12.6395620313
-12.6393800585
-12.6392305086
-12.6390971788
-12.6389650387
-12.6388085754
-12.6385963613
-12.6383290333
-12.6386313623
-12.6387928795
-12.6388387301
-15.4787040068
-15.2896704764
-14.9719351659
-14.6019106562
-14.236523609
-13.9065298162
-13.6237111044
-13.3891455402
-13.1988308844
-13.0468677929
-12.9270522437
-12.8335961626
-12.7614056538
-12.7061469513
-12.664215331
-12.6326631455
-12.609114048
-12.5916764329
-12.5788622858
-12.5695142405
-12.5627418742
-12.5578673196
-12.5543797308
-12.5518978353
-12.5501396489
-12.5488983689
-12.5480234741
-12.5474061201
-12.5469680033
-12.546652973
-12.5464207716
-12.5462424136
-12.5460968681
-12.5459684975
-12.5458432803
-12.545697412
-12.545501802
-12.5452534741
-12.5455516067
-12.5457135642
-12.545755299
-15.5095385047
-15.3012777108
-14.9554127367
-14.5587625281
-14.1728580253
-13.828835652
-13.5371336131
-13.2972607641
-13.1039422125
-12.9503843264
-12.8298001107
-12.7360390717
-12.6637899739
-12.6085929607
-12.5667727908
-12.5353442252
-12.5119123027
-12.4945773984
-12.4818491536
-12.4725707139
-12.4658534537
-12.4610217413
-12.4575669714
-12.4551099138
-12.4533703483
-12.4521429461
-12.45127839
-12.4506688057
-12.4502366684
-12.4499264587
-12.4496984465
-12.4495241164
-12.4493829141
-12.4492598149
-12.4491418859
-12.4490072528
-12.4488294557
-12.4486019449
-12.4488926292
-12.4490533136
-12.4490896099
-15.5474964392
-15.3171280276
-14.9395595611
-14.5136836638
-14.1058553656
-13.7472132347
-13.4464745697
-13.201339841
-13.0051360436
-12.8501171196
-12.7288892263
-12.6349314434
-12.5627139836
-12.5076523135
-12.4660029021
-12.4347452221
-12.411467805
-12.3942648399
-12.3816451823
-12.3724537967
-12.3658049399
-12.3610261098
-12.3576116702
-12.3551850197
-12.3534681702
-12.3522576343
-12.3514055842
-12.3508053346
-12.3503803056
-12.3500757333
-12.3498525085
-12.349682656
-12.3495461526
-12.3494286344
-12.3493183346
-12.3491955282
-12.3490366604
-12.3488315942
-12.3491113953
-12.3492688467
-12.3492983451
-15.5937179128
-15.3378662569
-14.9245489531
-14.4666675815
-14.0355286343
-13.6617643109
-13.3519286382
-13.1016536979
-12.9027407611
-12.7464366711
-12.6247209151
-12.5306973833
-12.4586188398
-12.4037790768
-12.362369588
-12.3313376167
-12.3082578339
-12.2912204748
-12.2787354695
-12.2696511436
-12.2630859074
-12.2583714283
-12.255005884
-12.2526159807
-12.250926501
-12.2497362218
-12.2488991317
-12.2483099845
-12.247893334
-12.2475953131
-12.247377538
-12.2472126519
-12.2470812205
-12.2469695897
-12.2468672321
-12.2467567876
-12.2466178671
-12.2464366932
-12.2467019872
-12.2468540272
-12.2468753739
-15.6494895393
-15.3641763199
-14.9105172566
-14.4176676536
-13.9618732595
-13.5725931175
-13.2537057131
-12.9984958156
-12.7971115199
-12.6397428547
-12.5177276457
-12.4237934466
-12.351979163
-12.297461587
-12.256371683
-12.2256283091
-12.2027954861
-12.1859621447
-12.1736414706
-12.1646869419
-12.1582225914
-12.1535854544
-12.1502784916
-12.1479324939
-12.1462756304
-12.1451094234
-12.14429005
-12.1437139867
-12.1433071341
-12.1430166807
-12.1428050855
-12.1426456954
-12.142519728
-12.1424142869
-12.1423201525
-12.1422225405
-12.1421044806
-12.1419484787
-12.1421954557
-12.1423397288
-12.1423516171
-15.7162675651
-15.396778061
-14.897548337
-14.3665872429
-13.8848635997
-13.4798057295
-13.152031059
-12.8921823865
-12.6886302228
-12.5304647116
-12.4083726828
-12.3147081908
-12.2433025211
-12.1892218843
-12.1485423321
-12.118158992
-12.0956290277
-12.0790431514
-12.0669203203
-12.058121222
-12.0517771908
-12.0472319957
-12.0439944835
-12.0417004118
-12.0400820332
-12.0389441601
-12.0381455773
-12.0375848026
-12.0371893229
-12.0369075599
-12.036702945
-12.0365496237
-12.0364295317
-12.0363305778
-12.0362449118
-12.0361605304
-12.0360641323
-12.0359344265
-12.0361591045
-12.0362931314
-12.036294341
-15.7957061509
-15.4364220675
-14.8856542132
-14.3132685222
-13.8044493909
-13.3835094386
-13.0471453106
-12.7830521773
-12.5777050956
-12.4190597757
-12.2971492272
-12.2039611856
-12.1331283465
-12.0796145632
-12.039447791
-12.0095049112
-11.9873406246
-11.9710509624
-11.9591635203
-11.9505485292
-11.9443465269
-11.9399095594
-11.936753604
-11.9345203779
-11.9329470014
-11.9318421873
-11.9310677976
-11.9305247477
-11.9301423768
-11.929870537
-11.929673776
-11.9295271408
-11.9294133557
-11.929321181
-11.929244189
-11.9291733545
-11.9290992996
-11.9289968733
-11.92919512
-11.9293163609
-11.9293057968
-15.8896921379
-15.4838816898
-14.8747509105
-14.2574799718
-13.7205522882
-13.2838122152
-12.9393043183
-12.6714660506
-12.4647698048
-12.3060128682
-12.1845789803
-12.0921014128
-12.0220262179
-11.9692249658
-11.9296855515
-11.9002729397
-11.8785443753
-11.8626052111
-11.8509949122
-11.8425958771
-11.8365599809
-11.832249277
-11.8291882658
-11.8270257348
-11.8255045459
-11.8244379928
-11.8236915364
-11.8231688841
-11.8228015227
-11.8225409515
-11.8223529924
-11.8222137059
-11.8221066803
-11.8220215708
-11.8219534147
-11.8218963526
-11.8218451928
-11.8217709057
-11.8219384682
-11.8220443949
-11.8220211248
-16.0003879992
-15.5399411872
-14.8646284084
-14.1989026386
-13.6330627205
-13.1808223233
-12.8287788278
-12.5578061055
-12.350282065
-12.1918343077
-12.0712100715
-11.9797049948
-11.9105934426
-11.8586666542
-11.8198817301
-11.7910988988
-11.7698835794
-11.7543549239
-11.7430678723
-11.7349199152
-11.7290766412
-11.7249120359
-11.7219606704
-11.7198796344
-11.7184185006
-11.7173958957
-11.7166814551
-11.7161821132
-11.7158318283
-11.7155839847
-11.7154058504
-11.7152746214
-11.7151748288
-11.7150970643
-11.7150378589
-11.714994693
-11.7149668404
-11.714921449
-11.7150539891
-11.7151421626
-11.7151054536
-16.1302851604
-15.6053785239
-14.8549132901
-14.1371153669
-13.54183735
-13.0746481678
-12.7158539885
-12.4424744006
-12.2347216923
-12.0770574857
-11.9576143042
-11.8673722034
-11.7994518905
-11.7485781114
-11.7106876646
-11.682644074
-11.6620271885
-11.6469749195
-11.6360616706
-11.6282032569
-11.622581607
-11.618584764
-11.6157590776
-11.6137712974
-11.6123787734
-11.6114062912
-11.6107282921
-11.6102554131
-11.6099244375
-11.6096908933
-11.6095236816
-11.6094012644
-11.6093091997
-11.6092390535
-11.609188863
-11.6091596047
-11.6091553183
-11.6091395001
-11.6092326337
-11.6093007843
-11.6092501413
-16.2822705132
-15.6809408007
-14.8450223797
-14.0715794096
-13.4466975175
-12.9653984691
-12.6008286882
-12.3258912335
-12.1185880703
-11.9622357782
-11.8443836835
-11.7557237146
-11.6892440458
-11.6396186368
-11.6027756873
-11.5755908904
-11.555665405
-11.5411613474
-11.5306769605
-11.5231499321
-11.5177814113
-11.5139758306
-11.5112931899
-11.5094113848
-11.5080967082
-11.507181006
-11.5065442129
-11.5061011854
-11.5057919144
-11.5055743522
-11.5054192338
-11.5053064276
-11.5052226068
-11.505160346
-11.505119181
-11.5051037164
-11.5051230867
-11.5051374706
-11.505186807
-11.5052329125
-11.5051681225
-16.4597097674
-15.7673095515
-14.8341052583
-14.0016231019
-13.3474291561
-12.8531828623
-12.484014716
-12.2084929583
-12.002397011
-11.8479387731
-11.7321262144
-11.6453960975
-11.5806282632
-11.5324634224
-11.4968340592
-11.4706377352
-11.4515044155
-11.4376263498
-11.4276303864
-11.4204799504
-11.4153985518
-11.4118095519
-11.4092886384
-11.4075264694
-11.4062995461
-11.4054477518
-11.4048572581
-11.4044476986
-11.4041626846
-11.4039628931
-11.4038211086
-11.4037187554
-11.403643715
-11.4035896009
-11.4035574163
-11.4035554928
-11.4035984216
-11.4036436247
-11.4036448061
-11.4036671602
-11.4035883465
-16.666552378
-15.8650521073
-14.8209730746
-13.9264276872
-13.2437847651
-12.7381130162
-12.3657357606
-12.0907293373
-11.8866770059
-11.734747819
-11.6214609747
-11.5370365445
-11.4742732389
-11.427797822
-11.3935610799
-11.3684929397
-11.3502602714
-11.3370918632
-11.3276483218
-11.3209229919
-11.3161651429
-11.3128198144
-11.3104805855
-11.3088526226
-11.3077240002
-11.3069436913
-11.3064049028
-11.3060326437
-11.3057745867
-11.3055944544
-11.3054673096
-11.3053762917
-11.3053105876
-11.3052648766
-11.3052415707
-11.3052527822
-11.3053189568
-11.3053956298
-11.3053443664
-11.3053416292
-11.3052493259
-16.9074642101
-15.9745538054
-14.8040104866
-13.8450159517
-13.1354881497
-12.620304349
-12.2463262541
-11.973060434
-11.7719648874
-11.6232509213
-11.513012496
-11.4312968792
-11.3708517355
-11.326310853
-11.2936584124
-11.2698679636
-11.2526519612
-11.2402826017
-11.2314597835
-11.2252112669
-11.2208157356
-11.2177428634
-11.2156064889
-11.2141281609
-11.2131089897
-11.2124081627
-11.2119267752
-11.2115958476
-11.2113675829
-11.2112090888
-11.2110979489
-11.2110191845
-11.2109633905
-11.2109263357
-11.2109117507
-11.210935521
-11.2110243806
-11.2111332635
-11.2110253644
-11.2109965816
-11.2108918398
-17.1879959881
-16.0959238646
-14.7810668889
-13.7562461244
-13.0222427293
-12.4998783787
-12.1261300713
-11.8559530743
-11.6588009367
-11.5140370348
-11.4074045116
-11.328826907
-11.2710336265
-11.2286880015
-11.1978236961
-11.1754698553
-11.1593937495
-11.1479183001
-11.1397886001
-11.1340716261
-11.1300793822
-11.1273093344
-11.1253981086
-11.124085634
-11.1231876136
-11.1225746443
-11.1221566131
-11.1218712248
-11.1216757067
-11.1215409091
-11.1214471902
-11.1213816285
-11.1213363344
-11.1213081879
-11.1213021127
-11.1213376787
-11.1214483698
-11.1215903576
-11.1214217579
-11.1213663329
-11.1212508744
-17.514798068
-16.2288650458
-14.7493222765
-13.6588146221
-12.9037442856
-12.3769656769
-12.0054990988
-11.739876914
-11.5477235017
-11.4076898342
-11.3052531584
-11.2302672006
-11.1754783622
-11.1356034335
-11.1067425554
-11.0859930973
-11.0711868927
-11.0607053279
-11.0533449456
-11.0482170333
-11.044671062
-11.0422356426
-11.0405728696
-11.0394431682
-11.0386784804
-11.0381620731
-11.0378135756
-11.0375780835
-11.0374183656
-11.037309388
-11.0372345475
-11.0371831624
-11.037148971
-11.0371299865
-11.0371321631
-11.0371785572
-11.037309874
-11.0374860952
-11.0372528825
-11.0371704789
-11.0370469182
-17.8958953831
-16.3724934882
-14.705122169
-13.5512727741
-12.7796990121
-12.2517092911
-11.884791688
-11.6253001719
-11.4392632064
-11.3047810633
-11.2071597499
-11.1362414473
-11.0848269857
-11.0477117475
-11.0210801404
-11.002110978
-10.9887108765
-10.9793278203
-10.9728163878
-10.9683375492
-10.9652826169
-10.9632148825
-10.9618247335
-10.9608953179
-10.9602765443
-10.9598656705
-10.9595930612
-10.9594119386
-10.9592911502
-10.9592101642
-10.9591556894
-10.9591194717
-10.9590969954
-10.959087432
-10.9590975658
-10.959153599
-10.9593039042
-10.9595158099
-10.9592142588
-10.9591046051
-10.9589767637
-18.3410408187
-16.5250899655
-14.6437749926
-13.432064816
-12.6498475884
-12.124268346
-11.7643710111
-11.512685102
-11.3339368603
-11.2058635962
-11.113703265
-11.0473485103
-10.9996938602
-10.9656394348
-10.9414723727
-10.9244666651
-10.9126143519
-10.9044385057
-10.8988586319
-10.8950910103
-10.8925733802
-10.8909074185
-10.8898147626
-10.8891036089
-10.8886436343
-10.8883474609
-10.8881572186
-10.8880350169
-10.8879563355
-10.8879055416
-10.887872936
-10.8878528846
-10.887842741
-10.8878428671
-10.8878606437
-10.8879248912
-10.8880920113
-10.8883414709
-10.8879681017
-10.8878306624
-10.8877040058
-18.8621711577
-16.6837566846
-14.5593042106
-13.299597417
-12.5139956392
-11.9948213268
-11.6446033548
-11.4024832911
-11.23224119
-11.111464363
-11.0254327195
-10.9641543835
-10.9206582956
-10.8899762413
-10.868517093
-10.8536641816
-10.8435059744
-10.8366494385
-10.8320861685
-10.8290936125
-10.8271607118
-10.8259313844
-10.8251615911
-10.8246869898
-10.8243988909
-10.8242266978
-10.8241253657
-10.824066671
-10.8240332913
-10.8240148973
-10.8240056654
-10.8240027771
-10.824005583
-10.8240156815
-10.8240407906
-10.8241115827
-10.8242926693
-10.8245820674
-10.8241337531
-10.8239672228
-10.8238494451
-19.4739976265
-16.8439439075
-14.4441463987
-13.1523550863
-12.3720502107
-11.8635682823
-11.525856409
-11.2951308829
-11.1346465346
-11.022077312
-10.9428596103
-10.8871842379
-10.84825628
-10.8212666445
-10.8027653324
-10.7902595111
-10.7819453779
-10.7765228676
-10.7730630623
-10.7709106374
-10.7696106767
-10.7688533261
-10.7684320423
-10.7682124306
-10.7681093506
-10.7680704392
-10.7680645578
-10.7680739426
-10.7680890421
-10.7681052385
-10.7681208691
-10.7681361267
-10.7681524918
-10.7681728648
-10.7682050345
-10.7682804567
-10.7684718069
-10.7688041247
-10.768278287
-10.7680798554
-10.7679816363
-20.1947736625
-16.9987970343
-14.2887855111
-12.9890814015
-12.2240605894
-11.7307308626
-11.4084976687
-11.1910438303
-11.0415906521
-10.9381565945
-10.8664506311
-10.8169147744
-10.7829725415
-10.7600016769
-10.7447129418
-10.7347520719
-10.7284345238
-10.7245624887
-10.7222941281
-10.7210475705
-10.7204291199
-10.7201792437
-10.7201321464
-10.7201859224
-10.7202809339
-10.7203845255
-10.7204805594
-10.7205625301
-10.7206292316
-10.7206821652
-10.720724113
-10.7207584734
-10.7207889915
-10.7208199641
-10.7208590072
-10.7209369163
-10.721133742
-10.7215125998
-10.7209075515
-10.7206718851
-10.7206078252
-21.0472967935
-17.1382558842
-14.0813130271
-12.8090536463
-12.0702595954
-11.5965487609
-11.2928931581
-11.0906132774
-10.9534727887
-10.8601101639
-10.7966208671
-10.7537670971
-10.7252331623
-10.7066113279
-10.6947928197
-10.6875768038
-10.6834096765
-10.6812053315
-10.6802167493
-10.6799418675
-10.6800533929
-10.6803462892
-10.6806988169
-10.6810441387
-10.6813500945
-10.6816052222
-10.6818094814
-10.6819684217
-10.6820897532
-10.6821814993
-10.6822511656
-10.6823055456
-10.6823507846
-10.6823927071
-10.6824385836
-10.6825166472
-10.6827127842
-10.683142404
-10.6824579184
-10.6821758077
-10.6821655116
-22.0602207975
-17.247811676
-13.8069039099
-12.6124888597
-11.9110979165
-11.4612708024
-11.1794068514
-10.9942011545
-10.8706481568
-10.7882939788
-10.7337276687
-10.6981003216
-10.6753989702
-10.6614577524
-10.6533679718
-10.6490971068
-10.6472342457
-10.6468145262
-10.6471935865
-10.6479556174
-10.6488449839
-10.6497153712
-10.6504924375
-10.6511470094
-10.6516763851
-10.6520917784
-10.6524103353
-10.6526504472
-10.6528293001
-10.6529618325
-10.6530605448
-10.6531358071
-10.6531962971
-10.6532495422
-10.6533024401
-10.6533782131
-10.6535657634
-10.6540507885
-10.6532890027
-10.6529456461
-10.6530148567
-23.2697804025
-17.3067907679
-13.4472000001
-12.4011334496
-11.7472584476
-11.3251387353
-11.0684014111
-10.9021360286
-10.7934229533
-10.7230069919
-10.6780653912
-10.6502061133
-10.6337599086
-10.6248294972
-10.6207256171
-10.6195988509
-10.6201927177
-10.621673174
-10.6235064004
-10.6253693309
-10.6270832789
-10.6285648975
-10.6297905905
-10.6307714393
-10.6315361686
-10.6321201339
-10.6325587374
-10.6328839793
-10.6331230647
-10.6332982262
-10.6334272172
-10.6335241555
-10.6336003742
-10.633665328
-10.6337257669
-10.6337968185
-10.6339657224
-10.6345107981
-10.6336775892
-10.6332505376
-10.6334321033
-24.7220662125
-17.2859824391
-12.9795948895
-12.1791085676
-11.5796282265
-11.1883607297
-10.9602399063
-10.8147077375
-10.7220484356
-10.6644853151
-10.6298592101
-10.610302198
-10.6005282716
-10.596934485
-10.597069954
-10.5992829555
-10.6024830815
-10.605976647
-10.60934825
-10.6123740575
-10.6149576167
-10.617082782
-10.6187800274
-10.6201032519
-10.6211145425
-10.6218748289
-10.6224388075
-10.6228528258
-10.6231546258
-10.6233740931
-10.6235344775
-10.6236537996
-10.6237461538
-10.6238231983
-10.6238921768
-10.6239563113
-10.6240934985
-10.6247020928
-10.6238084145
-10.6232888569
-10.6236016352
)
;

boundaryField
{
    inout
    {
        type            empty;
    }
    top
    {
        type            calculated;
        value           nonuniform List<scalar> 
41
(
-25.5153489102
-17.2513604644
-12.7157017925
-12.0661233952
-11.4949873057
-11.1198331446
-10.9069156044
-10.7721864
-10.6878515977
-10.6369411689
-10.6076437297
-10.5923701573
-10.5860357293
-10.5851909655
-10.5875088454
-10.5914401087
-10.5959802766
-10.6005082195
-10.6046697086
-10.6082921462
-10.6113215149
-10.6137763238
-10.6157149087
-10.6172132124
-10.6183504822
-10.6192007877
-10.6198287268
-10.6202880011
-10.620621747
-10.6208637634
-10.6210401067
-10.6211707857
-10.6212712991
-10.6213544827
-10.6214280518
-10.6214882258
-10.6216058337
-10.6222467949
-10.6213263191
-10.6207628092
-10.6211414715
)
;
    }
    bottom
    {
        type            calculated;
        value           nonuniform List<scalar> 
41
(
-15.3892132565
-15.310680664
-15.1661005679
-14.9764178119
-14.765098909
-14.5511220657
-14.3488837832
-14.1671087551
-14.0098478314
-13.8777966928
-13.7695462143
-13.6825497742
-13.6137980488
-13.5602479178
-13.5190688436
-13.4877642728
-13.4642130936
-13.4466634337
-13.4337006457
-13.4242035879
-13.4172978699
-13.4123110675
-13.4087325014
-13.4061786576
-13.404364401
-13.4030796161
-13.4021706433
-13.4015257865
-13.4010641698
-13.4007272712
-13.4004725449
-13.400268602
-13.4000914034
-13.3999206
-13.3997348659
-13.399508455
-13.399229027
-13.3989778317
-13.3990278162
-13.3990349972
-13.3991457553
)
;
    }
    frontback
    {
        type            empty;
    }
}


// ************************************************************************* //
