/*--------------------------------*- C++ -*----------------------------------*\
| =========                 |                                                 |
| \\      /  F ield         | OpenFOAM: The Open Source CFD Toolbox           |
|  \\    /   O peration     | Version:  2112                                  |
|   \\  /    A nd           | Website:  www.openfoam.com                      |
|    \\/     M anipulation  |                                                 |
\*---------------------------------------------------------------------------*/
FoamFile
{
    version     2.0;
    format      ascii;
    arch        "LSB;label=32;scalar=64";
    class       volScalarField;
    location    "0.4";
    object      phiE;
}
// * * * * * * * * * * * * * * * * * * * * * * * * * * * * * * * * * * * * * //

dimensions      [1 2 -3 0 0 -1 0];

internalField   nonuniform List<scalar> 
1681
(
0.993902456011
0.993902456297
0.993902455954
0.993902456213
0.993902455973
0.993902456113
0.993902455958
0.993902456078
0.99390245592
0.993902456047
0.993902455907
0.993902455952
0.99390245587
0.993902455805
0.993902455733
0.993902455609
0.993902455502
0.993902455361
0.993902455225
0.993902455094
0.993902454958
0.99390245484
0.99390245474
0.993902454612
0.993902454547
0.99390245441
0.993902454328
0.993902454209
0.993902454077
0.993902453984
0.993902453819
0.993902453749
0.993902453585
0.993902453518
0.993902453412
0.993902453326
0.993902453285
0.993902453232
0.993902453168
0.993902453223
0.993902453051
0.981707368023
0.9817073689
0.981707367859
0.981707368643
0.981707367919
0.981707368344
0.981707367874
0.981707368239
0.98170736776
0.981707368144
0.981707367724
0.981707367857
0.981707367615
0.981707367416
0.981707367202
0.98170736683
0.981707366507
0.981707366087
0.981707365677
0.981707365286
0.981707364877
0.981707364523
0.981707364224
0.981707363838
0.981707363644
0.981707363234
0.981707362985
0.98170736263
0.981707362232
0.981707361953
0.981707361457
0.981707361247
0.981707360755
0.981707360552
0.981707360237
0.981707359977
0.981707359853
0.981707359698
0.981707359499
0.981707359674
0.981707359152
0.969512280005
0.96951228153
0.969512279755
0.969512281082
0.969512279866
0.969512280585
0.969512279789
0.969512280416
0.9695122796
0.969512280251
0.969512279551
0.969512279767
0.969512279372
0.969512279033
0.969512278681
0.96951227806
0.969512277522
0.969512276824
0.969512276137
0.969512275488
0.969512274807
0.969512274213
0.969512273722
0.969512273071
0.969512272753
0.969512272066
0.969512271646
0.969512271059
0.969512270388
0.96951226993
0.969512269094
0.969512268748
0.969512267927
0.969512267584
0.969512267067
0.969512266626
0.969512266421
0.96951226617
0.96951226582
0.96951226614
0.969512265252
0.957317191963
0.957317194184
0.957317191652
0.957317193529
0.957317191825
0.957317192839
0.957317191711
0.957317192613
0.957317191452
0.957317192372
0.957317191399
0.957317191685
0.95731719115
0.957317190665
0.957317190178
0.957317189309
0.957317188554
0.957317187582
0.957317186617
0.957317185711
0.95731718476
0.957317183921
0.957317183244
0.957317182319
0.957317181879
0.957317180915
0.957317180317
0.957317179504
0.957317178549
0.957317177915
0.957317176734
0.957317176252
0.957317175104
0.957317174611
0.9573171739
0.957317173274
0.957317172986
0.95731717265
0.957317172127
0.957317172614
0.95731717135
0.945122103902
0.945122106859
0.945122103562
0.945122105983
0.945122103807
0.945122105107
0.945122103653
0.945122104833
0.945122103329
0.945122104509
0.945122103282
0.94512210362
0.945122102958
0.945122102322
0.945122101701
0.945122100589
0.945122099615
0.945122098374
0.945122097129
0.945122095967
0.945122094748
0.945122093657
0.945122092801
0.945122091595
0.945122091031
0.945122089792
0.945122089003
0.945122087968
0.945122086721
0.94512208591
0.945122084383
0.945122083757
0.945122082288
0.945122081635
0.945122080739
0.945122079921
0.945122079547
0.945122079135
0.945122078423
0.945122079089
0.945122077444
0.932927015834
0.932927019549
0.932927015495
0.932927018441
0.932927015821
0.932927017393
0.932927015625
0.932927017078
0.932927015244
0.932927016665
0.932927015208
0.932927015578
0.932927014806
0.932927014014
0.93292701326
0.932927011911
0.932927010715
0.93292700921
0.932927007684
0.932927006267
0.932927004784
0.932927003433
0.932927002404
0.93292700091
0.932927000215
0.932926998705
0.932926997709
0.932926996458
0.932926994909
0.932926993916
0.932926992046
0.932926991262
0.932926989483
0.932926988655
0.932926987581
0.932926986568
0.932926986103
0.932926985626
0.932926984706
0.932926985557
0.932926983531
0.920731927767
0.920731932249
0.920731927463
0.920731930904
0.920731927876
0.920731929701
0.920731927635
0.92073192935
0.920731927209
0.920731928844
0.920731927191
0.920731927569
0.920731926701
0.920731925754
0.920731924866
0.920731923289
0.920731921866
0.920731920104
0.920731918297
0.920731916622
0.920731914881
0.920731913262
0.920731912062
0.920731910276
0.92073190944
0.920731907664
0.920731906444
0.920731904979
0.920731903121
0.920731901935
0.920731899727
0.920731898768
0.920731896691
0.920731895672
0.920731894424
0.920731893216
0.920731892651
0.920731892118
0.920731890977
0.920731892012
0.920731889608
0.90853683971
0.908536844956
0.908536839472
0.908536843373
0.908536839979
0.908536842033
0.908536839693
0.908536841654
0.908536839237
0.908536841054
0.908536839239
0.908536839602
0.908536838656
0.908536837553
0.908536836529
0.908536834735
0.908536833082
0.908536831069
0.908536828982
0.908536827046
0.908536825055
0.908536823157
0.908536821788
0.908536819707
0.908536818715
0.90853681668
0.908536815216
0.908536813536
0.908536811364
0.908536809969
0.908536807433
0.908536806275
0.908536803911
0.908536802687
0.908536801268
0.908536799865
0.908536799188
0.908536798608
0.908536797233
0.908536798445
0.908536795671
0.896341751672
0.896341757666
0.896341751529
0.896341755849
0.896341752132
0.896341754394
0.896341751807
0.896341753993
0.896341751336
0.8963417533
0.896341751363
0.89634175169
0.896341750679
0.896341749426
0.896341748262
0.896341746264
0.896341744376
0.896341742119
0.896341739755
0.896341737553
0.896341735318
0.896341733133
0.896341731593
0.896341729216
0.896341728051
0.896341725763
0.896341724035
0.896341722137
0.896341719646
0.896341718021
0.896341715168
0.896341713784
0.896341711144
0.8963417097
0.896341708106
0.896341706512
0.896341705711
0.896341705091
0.896341703473
0.896341704847
0.896341701716
0.884146663661
0.884146670376
0.884146663638
0.884146668334
0.884146664341
0.884146666789
0.884146663985
0.884146666372
0.884146663519
0.884146665591
0.884146663576
0.884146663847
0.884146662784
0.884146661389
0.884146660081
0.884146657892
0.884146655767
0.884146653271
0.884146650633
0.88414664816
0.884146645688
0.884146643207
0.884146641493
0.884146638819
0.88414663746
0.884146634925
0.884146632911
0.884146630788
0.884146627977
0.884146626095
0.884146622937
0.884146621297
0.884146618388
0.884146616713
0.884146614935
0.884146613155
0.884146612215
0.884146611557
0.884146609692
0.884146611207
0.884146607736
0.871951575681
0.871951583084
0.871951575801
0.871951580834
0.871951576607
0.871951579223
0.871951576231
0.871951578796
0.871951575796
0.871951577938
0.871951575886
0.871951576086
0.871951574983
0.871951573458
0.871951572001
0.871951569636
0.871951567272
0.87195156454
0.871951561635
0.871951558884
0.871951556181
0.871951553395
0.871951551501
0.871951548532
0.871951546956
0.871951544179
0.871951541858
0.871951539498
0.871951536367
0.871951534195
0.871951530743
0.871951528818
0.871951525641
0.871951523725
0.871951521749
0.87195151979
0.871951518693
0.871951517999
0.871951515888
0.871951517512
0.871951513725
0.859756487739
0.859756495789
0.85975648802
0.85975649335
0.85975648893
0.859756491699
0.859756488554
0.859756491271
0.859756488175
0.859756490353
0.859756488306
0.859756488426
0.859756487294
0.859756485653
0.859756484042
0.859756481516
0.859756478913
0.859756475947
0.859756472782
0.859756469744
0.859756466818
0.859756463719
0.859756461636
0.859756458374
0.859756456553
0.859756453539
0.85975645089
0.859756448276
0.859756444826
0.859756442329
0.859756438591
0.859756436351
0.859756432899
0.859756430737
0.85975642854
0.859756426411
0.859756425141
0.859756424404
0.859756422052
0.859756423751
0.859756419673
0.847561399837
0.847561408492
0.847561400292
0.847561405889
0.847561401311
0.847561404224
0.847561400959
0.847561403804
0.847561400667
0.847561402849
0.847561400849
0.847561400887
0.847561399732
0.847561397996
0.847561396226
0.847561393554
0.847561390713
0.847561387514
0.847561384098
0.847561380765
0.847561377619
0.847561374201
0.847561371915
0.847561368364
0.847561366271
0.84756136302
0.847561360024
0.847561357134
0.847561353366
0.847561350504
0.847561346485
0.847561343899
0.847561340158
0.847561337746
0.847561335302
0.84756133301
0.847561331549
0.847561330759
0.847561328179
0.847561329907
0.847561325569
0.835366311978
0.835366321193
0.835366312616
0.835366318455
0.83536631375
0.835366316802
0.835366313452
0.835366316403
0.835366313283
0.835366315442
0.83536631353
0.835366313489
0.835366312318
0.835366310509
0.835366308577
0.835366305773
0.835366302698
0.835366299266
0.835366295608
0.835366291972
0.835366288608
0.835366284866
0.835366282363
0.835366278524
0.83536627613
0.83536627264
0.835366269278
0.835366266084
0.835366262
0.835366258729
0.835366254427
0.835366251467
0.835366247415
0.835366244752
0.835366242026
0.835366239576
0.835366237909
0.835366237049
0.835366234258
0.835366235967
0.835366231401
0.823171224161
0.823171233893
0.823171224988
0.823171231051
0.823171226247
0.823171229436
0.823171226039
0.823171229078
0.823171226031
0.823171228151
0.823171226362
0.823171226256
0.823171225075
0.823171223218
0.823171221124
0.823171218201
0.823171214899
0.823171211232
0.82317120734
0.823171203393
0.823171199813
0.823171195742
0.823171193003
0.82317118888
0.823171186155
0.82317118242
0.823171178674
0.823171175143
0.823171170741
0.823171167016
0.823171162421
0.82317115906
0.823171154664
0.82317115175
0.823171148701
0.823171146099
0.823171144209
0.823171143258
0.823171140276
0.823171141914
0.823171137152
0.810976136386
0.810976146596
0.810976137404
0.810976143681
0.810976138802
0.810976142131
0.810976138727
0.810976141838
0.810976138923
0.810976140995
0.810976139364
0.810976139215
0.81097613803
0.810976136153
0.810976133899
0.810976130868
0.810976127348
0.810976123443
0.810976119327
0.810976115061
0.810976111262
0.810976106859
0.810976103863
0.810976099459
0.810976096372
0.81097609238
0.810976088236
0.810976084328
0.810976079604
0.810976075378
0.810976070472
0.810976066684
0.810976061901
0.810976058734
0.81097605532
0.810976052565
0.810976050436
0.810976049368
0.810976046217
0.810976047732
0.810976042806
0.79878104865
0.798781059303
0.798781049859
0.798781056349
0.798781051416
0.798781054892
0.798781051521
0.798781054695
0.798781051969
0.798781053996
0.798781052556
0.798781052392
0.798781051211
0.798781049343
0.798781046937
0.798781043809
0.798781040082
0.798781035936
0.798781031603
0.798781027013
0.79878102299
0.798781018253
0.798781014976
0.798781010291
0.798781006811
0.798781002547
0.798780997989
0.79878099366
0.798780988606
0.79878098383
0.798780978583
0.798780974343
0.79878096912
0.7987809657
0.798780961871
0.798780958959
0.798780956576
0.79878095536
0.798780952063
0.798780953405
0.798780948345
0.78658596095
0.786585972015
0.786585962348
0.786585969056
0.78658596409
0.786585967722
0.786585964429
0.786585967663
0.786585965181
0.786585967176
0.786585965958
0.786585965818
0.786585964651
0.786585962824
0.786585960276
0.78658595706
0.78658595314
0.786585948749
0.786585944207
0.786585939286
0.786585935033
0.786585929959
0.786585926377
0.786585921409
0.786585917507
0.786585912949
0.786585907961
0.786585903162
0.786585897763
0.786585892389
0.786585886759
0.786585882043
0.786585876319
0.786585872637
0.786585868342
0.786585865262
0.786585862612
0.786585861213
0.786585857792
0.786585858916
0.786585853745
0.774390873282
0.774390884735
0.77439087487
0.774390881803
0.774390876827
0.774390880625
0.774390877456
0.774390880755
0.774390878573
0.774390880561
0.774390879594
0.774390879524
0.774390878387
0.774390876632
0.774390873959
0.774390870663
0.774390866566
0.774390861928
0.774390857182
0.774390851927
0.774390847433
0.77439084202
0.774390838105
0.77439083285
0.774390828496
0.774390823616
0.774390818183
0.77439081286
0.774390807094
0.774390801073
0.774390795007
0.774390789788
0.774390783492
0.774390779537
0.774390774723
0.774390771457
0.774390768525
0.774390766908
0.77439076338
0.774390764246
0.774390758987
0.762195785644
0.762195797464
0.762195787419
0.76219579459
0.762195789628
0.762195793605
0.76219579061
0.762195793986
0.762195792157
0.762195794177
0.762195793493
0.762195793544
0.762195792457
0.762195790806
0.762195788031
0.762195784664
0.762195780407
0.76219577552
0.762195770574
0.76219576498
0.762195760232
0.76219575448
0.762195750203
0.762195744653
0.76219573982
0.762195734583
0.762195728688
0.762195722786
0.762195716618
0.762195709901
0.762195703334
0.762195697581
0.762195690638
0.762195686387
0.762195681002
0.762195677524
0.762195674294
0.762195672422
0.762195668801
0.762195669378
0.762195664046
0.750000698031
0.750000710201
0.750000699996
0.750000707417
0.750000702498
0.750000706668
0.750000703897
0.750000707371
0.750000705948
0.75000070805
0.750000707681
0.750000707912
0.750000706903
0.75000070539
0.75000070254
0.75000069911
0.750000694711
0.750000689575
0.75000068443
0.750000678496
0.750000673479
0.750000667385
0.750000662715
0.75000065686
0.750000651521
0.750000645886
0.75000063951
0.75000063297
0.750000626358
0.750000618896
0.750000611748
0.750000605428
0.750000597755
0.750000593175
0.750000587167
0.750000583441
0.750000579898
0.750000577734
0.750000574027
0.750000574294
0.750000568903
0.737805610441
0.737805622946
0.737805612599
0.73780562028
0.73780561544
0.737805619816
0.737805617326
0.737805620928
0.737805619962
0.737805622207
0.73780562219
0.737805622664
0.737805621768
0.737805620427
0.737805617536
0.737805614052
0.737805609529
0.737805604145
0.737805598802
0.737805592526
0.737805587222
0.737805580783
0.737805575691
0.737805569515
0.737805563644
0.737805557567
0.737805550686
0.737805543446
0.737805536336
0.737805528078
0.737805520259
0.737805513329
0.737805504842
0.737805499888
0.737805493204
0.737805489189
0.737805485313
0.737805482822
0.737805479029
0.737805478975
0.737805473534
0.725610522873
0.725610535696
0.725610525229
0.725610533178
0.725610528458
0.725610533054
0.725610530902
0.72561053467
0.725610534214
0.725610536672
0.725610537048
0.725610537834
0.725610537095
0.725610535961
0.725610533067
0.725610529541
0.725610524914
0.725610519285
0.725610513741
0.725610507122
0.725610501512
0.725610494724
0.725610489179
0.725610482661
0.725610476234
0.725610469664
0.72561046225
0.72561045425
0.725610446574
0.725610437469
0.725610428879
0.725610421287
0.725610411899
0.725610406511
0.725610399103
0.725610394745
0.725610390517
0.725610387663
0.725610383778
0.725610383406
0.725610377921
0.713415435324
0.713415448448
0.713415437889
0.713415446106
0.713415441556
0.713415446385
0.713415444632
0.713415448613
0.713415448718
0.713415451469
0.713415452288
0.713415453455
0.713415452925
0.713415452035
0.713415449181
0.713415445627
0.713415440913
0.713415435045
0.713415429295
0.713415422335
0.713415416396
0.713415409254
0.713415403226
0.713415396341
0.713415389335
0.713415382218
0.713415374238
0.713415365415
0.713415357095
0.713415347089
0.71341533762
0.713415329304
0.713415318928
0.713415313032
0.713415304852
0.713415300091
0.713415295486
0.713415292239
0.713415288247
0.71341528757
0.713415282049
0.701220347797
0.701220361199
0.70122035058
0.70122035906
0.701220354737
0.701220359812
0.70122035852
0.701220362767
0.701220363489
0.701220366619
0.701220367934
0.701220369557
0.701220369297
0.701220368688
0.701220365922
0.701220362354
0.701220357572
0.701220351472
0.701220345511
0.701220338209
0.701220331918
0.701220324415
0.701220317876
0.701220310594
0.701220302986
0.701220295265
0.701220286679
0.701220276974
0.701220267921
0.701220256956
0.701220246494
0.701220237378
0.70122022593
0.701220219437
0.701220210439
0.701220205208
0.701220200199
0.701220196531
0.701220192413
0.701220191455
0.701220185906
0.689025260292
0.689025273941
0.689025263309
0.689025272036
0.689025268004
0.689025273338
0.68902527257
0.689025277142
0.689025278537
0.689025282136
0.68902528401
0.689025286162
0.689025286242
0.689025285951
0.689025283323
0.689025279759
0.689025274928
0.689025268605
0.689025262423
0.689025254782
0.689025248114
0.689025240241
0.689025233164
0.689025225452
0.689025217221
0.689025208839
0.6890251996
0.689025188953
0.68902517907
0.689025167083
0.689025155512
0.689025145508
0.689025132908
0.689025125716
0.689025115855
0.689025110083
0.689025104639
0.689025100525
0.689025096256
0.689025095054
0.689025089489
0.676830172813
0.67683018667
0.676830176078
0.676830185027
0.676830181356
0.676830186959
0.67683018678
0.676830191741
0.676830193865
0.676830198026
0.676830200528
0.676830203284
0.676830203777
0.676830203846
0.676830201406
0.676830197868
0.676830193001
0.676830186466
0.676830180054
0.676830172075
0.676830165006
0.676830156751
0.676830149112
0.676830140934
0.67683013206
0.676830122958
0.676830113015
0.676830101372
0.676830090553
0.67683007748
0.676830064682
0.676830053691
0.676830039862
0.676830031858
0.676830021094
0.676830014705
0.676830008794
0.676830004214
0.676829999764
0.676829998364
0.676829992801
0.664635085365
0.664635099378
0.664635088894
0.664635098028
0.664635094792
0.664635100674
0.664635101146
0.66463510656
0.664635109473
0.664635114286
0.664635117492
0.664635120924
0.664635121908
0.664635122376
0.664635120174
0.664635116685
0.664635111796
0.664635105061
0.664635098407
0.664635090091
0.664635082598
0.664635073948
0.664635065727
0.664635057043
0.664635047505
0.664635037631
0.664635026928
0.664635014235
0.664635002373
0.664634988146
0.664634974009
0.664634961922
0.664634946795
0.664634937859
0.664634926153
0.66463491907
0.664634912657
0.664634907597
0.664634902936
0.664634901393
0.664634895859
0.652439997955
0.652440012059
0.652440001762
0.652440011034
0.652440008308
0.652440014475
0.652440015658
0.652440021589
0.652440025347
0.652440030902
0.652440034887
0.652440039064
0.652440040618
0.652440041524
0.652440039608
0.65244003619
0.65244003129
0.652440024366
0.652440017458
0.652440008805
0.652440000865
0.652439991807
0.652439982986
0.652439973759
0.652439963539
0.652439952843
0.652439941322
0.652439927534
0.652439914523
0.652439899072
0.65243988349
0.65243987019
0.652439853708
0.652439843715
0.652439831035
0.652439823182
0.652439816236
0.652439810685
0.652439805785
0.652439804161
0.652439798689
0.640244910592
0.640244924705
0.640244914689
0.64024492404
0.640244921895
0.640244928349
0.640244930299
0.640244936804
0.640244941462
0.640244947838
0.640244952679
0.640244957665
0.640244959864
0.640244961242
0.640244959655
0.640244956329
0.640244951426
0.640244944325
0.640244937148
0.64024492816
0.640244919752
0.64024491027
0.640244900837
0.640244891031
0.640244880112
0.640244868554
0.640244856157
0.640244841235
0.640244826975
0.640244810232
0.640244793114
0.640244778484
0.640244760601
0.64024474943
0.640244735748
0.640244727059
0.640244719547
0.640244713505
0.640244708341
0.6402447067
0.640244701335
0.628049823284
0.628049837311
0.628049827682
0.62804983704
0.628049835542
0.62804984228
0.628049845042
0.628049852172
0.628049857777
0.628049865042
0.628049870813
0.628049876658
0.62804987957
0.628049881449
0.628049880225
0.628049877011
0.628049872105
0.628049864837
0.628049857376
0.628049848051
0.628049839158
0.628049829238
0.628049819187
0.62804980877
0.628049797141
0.628049784689
0.628049771365
0.628049755282
0.628049739685
0.628049721587
0.628049702859
0.628049686785
0.628049667475
0.628049655012
0.628049640312
0.628049630726
0.628049622625
0.628049616098
0.628049610654
0.628049609065
0.628049603857
0.615854736045
0.61585474987
0.615854740747
0.61585475003
0.615854749234
0.615854756244
0.615854759853
0.615854767646
0.615854774234
0.61585478244
0.615854789202
0.615854795945
0.615854799625
0.615854802024
0.615854801186
0.615854798096
0.615854793182
0.615854785754
0.61585477799
0.615854768328
0.615854758937
0.615854748565
0.615854737895
0.615854726845
0.615854714499
0.615854701138
0.615854686842
0.615854669585
0.615854652581
0.615854633078
0.615854612689
0.615854595072
0.615854574326
0.615854560477
0.615854544754
0.615854534229
0.615854525524
0.61585451853
0.615854512799
0.615854511325
0.615854506335
0.603659648888
0.603659662377
0.603659653893
0.603659663007
0.603659662951
0.603659670211
0.603659674686
0.603659683164
0.603659690756
0.603659699933
0.603659707733
0.603659715395
0.603659719879
0.603659722803
0.603659722357
0.603659719394
0.603659714459
0.603659706872
0.603659698787
0.603659688786
0.603659678887
0.603659668053
0.603659656774
0.603659645075
0.603659632015
0.603659617745
0.60365960245
0.603659584023
0.603659565568
0.603659544627
0.603659522556
0.603659503314
0.603659481152
0.603659465845
0.603659449115
0.603659437626
0.603659428317
0.603659420887
0.603659414879
0.603659413577
0.603659408864
0.591464561828
0.591464574826
0.591464567127
0.59146457597
0.591464576674
0.591464584147
0.591464589489
0.591464598653
0.591464607249
0.591464617402
0.591464626266
0.591464634845
0.591464640145
0.591464643579
0.591464643515
0.59146464067
0.591464635689
0.59146462794
0.591464619513
0.591464609169
0.591464598758
0.591464587456
0.591464575583
0.591464563235
0.591464549476
0.591464534316
0.591464518013
0.591464498444
0.591464478522
0.591464456134
0.591464432396
0.591464411476
0.59146438795
0.591464371147
0.591464353446
0.591464340993
0.591464331097
0.591464323278
0.59146431702
0.591464315932
0.591464311554
0.579269474882
0.579269487213
0.579269480456
0.57926948892
0.57926949038
0.579269498014
0.579269504203
0.579269514033
0.579269523607
0.579269534713
0.579269544641
0.579269554111
0.579269560213
0.579269564121
0.579269564405
0.579269561655
0.579269556592
0.57926954867
0.579269539876
0.579269529184
0.579269518263
0.579269506493
0.579269494052
0.579269481069
0.579269466638
0.57926945063
0.579269433333
0.579269412675
0.579269391307
0.57926936749
0.579269342137
0.579269319521
0.579269294717
0.579269276416
0.579269257807
0.579269244418
0.579269233974
0.579269225829
0.579269219371
0.579269218515
0.579269214518
0.567074388068
0.56707439953
0.567074393886
0.56707440186
0.567074404048
0.567074411775
0.567074418768
0.567074429222
0.567074439725
0.567074451732
0.567074462701
0.567074473012
0.567074479873
0.567074484196
0.567074484772
0.567074482077
0.567074476884
0.567074468769
0.567074459583
0.567074448535
0.567074437111
0.567074424879
0.567074411905
0.567074398316
0.567074383255
0.567074366462
0.567074348211
0.567074326541
0.567074303782
0.567074278586
0.567074251707
0.567074227411
0.567074201447
0.567074181689
0.567074162259
0.567074147991
0.567074137058
0.567074128668
0.567074122084
0.567074121443
0.567074117858
0.554879301402
0.554879311766
0.554879307413
0.554879314797
0.554879317659
0.554879325397
0.554879333135
0.554879344156
0.554879355517
0.554879368352
0.55487938032
0.554879391404
0.554879398958
0.554879403619
0.554879404415
0.554879401722
0.554879396338
0.554879388003
0.554879378398
0.554879366983
0.554879355065
0.554879342383
0.554879328919
0.554879314766
0.554879299131
0.554879281633
0.554879262489
0.554879239907
0.554879215842
0.554879189338
0.554879161049
0.554879135116
0.554879108136
0.554879086994
0.554879066848
0.554879051781
0.554879040436
0.554879031897
0.554879025283
0.554879024797
0.554879021632
0.542684214898
0.542684223903
0.542684221016
0.542684227732
0.542684231199
0.542684238858
0.542684247277
0.542684258806
0.54268427095
0.542684284534
0.542684297457
0.542684309249
0.542684317424
0.542684322343
0.542684323278
0.542684320528
0.542684314891
0.542684306302
0.542684296248
0.542684284453
0.542684272053
0.542684258936
0.542684245024
0.542684230358
0.54268421421
0.542684196096
0.542684176131
0.542684152741
0.542684127467
0.542684099728
0.54268407015
0.542684042628
0.542684014772
0.542683992336
0.542683971576
0.5426839558
0.542683944127
0.542683935541
0.542683929013
0.542683928558
0.542683925801
0.530489128556
0.530489135901
0.530489134641
0.530489140652
0.530489144654
0.530489152158
0.530489161209
0.530489173216
0.53048918609
0.530489200377
0.530489214247
0.530489226721
0.530489235474
0.530489240596
0.530489241607
0.530489238755
0.530489232807
0.530489223933
0.530489213404
0.530489201209
0.530489188334
0.530489174794
0.530489160471
0.530489145335
0.530489128725
0.530489110073
0.530489089343
0.530489065226
0.530489038812
0.530489009875
0.530488979082
0.530488949975
0.530488921335
0.530488897665
0.530488876355
0.530488859936
0.530488848001
0.530488839456
0.530488833137
0.530488832513
0.530488830153
0.518294042359
0.518294047691
0.518294048169
0.518294053513
0.518294058003
0.518294065318
0.518294075013
0.518294087544
0.518294101177
0.518294116213
0.518294131126
0.518294144364
0.518294153742
0.518294159092
0.518294160182
0.518294157229
0.518294150945
0.518294141772
0.518294130746
0.518294118127
0.518294104774
0.518294090806
0.518294076083
0.518294060492
0.518294043432
0.518294024268
0.51829400277
0.518293977926
0.51829395035
0.518293920133
0.518293888066
0.518293857243
0.518293827775
0.518293802826
0.518293780917
0.518293763839
0.518293751646
0.518293743181
0.51829373718
0.518293736101
0.518293734171
0.506098956254
0.506098959142
0.506098961372
0.506098966191
0.506098971199
0.506098978386
0.506098988869
0.506099002132
0.506099016729
0.506099032758
0.506099049024
0.506099063327
0.506099073579
0.506099079359
0.506099080675
0.506099077728
0.506099071156
0.50609906171
0.506099050186
0.506099037113
0.506099023253
0.506099008815
0.506098993648
0.506098977547
0.506098959961
0.506098940198
0.506098917789
0.50609889204
0.506098863074
0.506098831245
0.506098797568
0.506098764612
0.506098733983
0.506098707465
0.50609868468
0.506098666744
0.506098654161
0.506098645708
0.506098640079
0.506098638159
0.50609863684
)
;

boundaryField
{
    inout
    {
        type            empty;
    }
    top
    {
        type            fixedValue;
        value           nonuniform List<scalar> 
41
(
0.50000141372
0.500001415259
0.500001418213
0.500001422641
0.500001427718
0.500001434594
0.500001445199
0.500001458516
0.500001473239
0.50000148939
0.500001505964
0.500001520427
0.500001530764
0.500001536463
0.500001537658
0.500001534546
0.500001527712
0.500001518074
0.500001506287
0.500001493007
0.500001478957
0.500001464379
0.500001449118
0.500001432929
0.500001415287
0.500001395489
0.500001372937
0.500001347115
0.500001317893
0.500001285734
0.500001251776
0.500001218249
0.500001187536
0.500001160663
0.500001137793
0.500001119723
0.50000110717
0.500001098883
0.500001093604
0.500001091154
0.500001090512
)
;
    }
    bottom
    {
        type            fixedValue;
        value           uniform 1;
    }
    frontback
    {
        type            empty;
    }
}


// ************************************************************************* //
