/*--------------------------------*- C++ -*----------------------------------*\
| =========                 |                                                 |
| \\      /  F ield         | OpenFOAM: The Open Source CFD Toolbox           |
|  \\    /   O peration     | Version:  2112                                  |
|   \\  /    A nd           | Website:  www.openfoam.com                      |
|    \\/     M anipulation  |                                                 |
\*---------------------------------------------------------------------------*/
FoamFile
{
    version     2.0;
    format      ascii;
    arch        "LSB;label=32;scalar=64";
    class       volScalarField;
    location    "0.4";
    object      T;
}
// * * * * * * * * * * * * * * * * * * * * * * * * * * * * * * * * * * * * * //

dimensions      [0 0 0 1 0 0 0];

internalField   nonuniform List<scalar> 
1681
(
319.812515685
319.813456803
319.815188451
319.817458124
319.819983336
319.82253737
319.82494849
319.827113289
319.828984348
319.830554225
319.831840391
319.832873657
319.833690149
319.834326238
319.834815647
319.835188047
319.835468598
319.835678047
319.835833124
319.835947078
319.836030234
319.836090536
319.836134018
319.836165218
319.836187515
319.836203409
319.83621473
319.836222818
319.836228647
319.836232924
319.836236169
319.836238765
319.836241007
319.836243145
319.836245433
319.836248177
319.836251525
319.836254539
319.836254044
319.836253968
319.836252727
319.437552912
319.440383675
319.445589845
319.452411858
319.459999697
319.467671509
319.474911956
319.481411167
319.487027429
319.491738937
319.495598525
319.498698928
319.501148724
319.50305715
319.50452545
319.505642683
319.506484351
319.507112704
319.50757794
319.507919805
319.508169281
319.508350192
319.508480644
319.508574249
319.508641147
319.508688832
319.5087228
319.508747068
319.508764555
319.508777388
319.508787121
319.508794909
319.508801635
319.508808043
319.508814902
319.508823135
319.508833225
319.508842387
319.508840682
319.508840308
319.508836768
319.062607284
319.067349684
319.076064483
319.087477965
319.100165
319.112983723
319.125074743
319.135922776
319.145293463
319.15315221
319.159588474
319.164757814
319.168841862
319.172023094
319.174470502
319.176332661
319.177735483
319.178782757
319.179558165
319.180127957
319.180543768
319.180845307
319.181062747
319.181218774
319.181330288
319.181409777
319.181466403
319.181506858
319.18153601
319.181557401
319.181573624
319.181586601
319.181597804
319.181608472
319.181619883
319.181633606
319.181650549
319.181666181
319.181662681
319.181661596
319.181656213
318.687688808
318.694379078
318.706660515
318.722731089
318.740578294
318.758592498
318.77556944
318.790790225
318.803930617
318.814945878
318.823964184
318.831205422
318.836925269
318.841380069
318.844806933
318.847414161
318.849378193
318.850844413
318.85193001
318.852727748
318.853309919
318.853732114
318.854036571
318.854255048
318.854411204
318.854522518
318.85460182
318.854658476
318.854699301
318.854729257
318.85475197
318.854770132
318.854785803
318.854800712
318.854816648
318.854835847
318.854859747
318.854882199
318.854876234
318.854873938
318.854867065
318.312805165
318.321494103
318.337424836
318.358245182
318.381338109
318.404615817
318.426528034
318.446154877
318.463086179
318.477270776
318.488878515
318.498195705
318.505553455
318.511282842
318.515689614
318.51904209
318.521567391
318.523452576
318.524848377
318.525874082
318.526622643
318.527165529
318.52755704
318.527838005
318.528038835
318.528182005
318.528284006
318.528356881
318.528409392
318.528447918
318.528477122
318.528500464
318.528520589
318.528539716
318.52856014
318.528584788
318.528615719
318.528645321
318.528636215
318.528632227
318.52862409
317.937960771
317.948714415
317.968402646
317.994093251
318.02254232
318.051171033
318.078081737
318.102157122
318.122906268
318.140276418
318.154482882
318.165881081
318.174879326
318.181884531
318.187271734
318.191369643
318.19445626
318.196760412
318.198466418
318.199720105
318.200635085
318.2012987
318.201777308
318.202120803
318.202366348
318.202541408
318.202666137
318.202755253
318.202819465
318.20286657
318.202902266
318.202930779
318.202955343
318.202978657
318.203003522
318.203033573
318.203071576
318.203108615
318.203095725
318.203089639
318.203080371
317.56315584
317.576056404
317.59963704
317.630347142
317.664288044
317.698374758
317.730360831
317.758936165
317.78353557
317.804110674
317.820926903
317.834412056
317.845053794
317.853336197
317.859704382
317.864547888
317.868195829
317.870918915
317.872935103
317.874416769
317.875498187
317.876282567
317.876848317
317.877254388
317.877544693
317.877751682
317.877899172
317.878004554
317.878080485
317.878136177
317.878178365
317.878212041
317.878241021
317.878268486
317.878297736
317.878333128
317.878378202
317.878422909
317.878405649
317.878397137
317.878386807
317.188385391
317.203532469
317.231168587
317.267077325
317.306671523
317.346342742
317.383494486
317.416629769
317.445117027
317.468919422
317.488358009
317.503936808
317.51622534
317.525786399
317.533136092
317.538725295
317.542934501
317.546076435
317.548402737
317.550112353
317.551360211
317.552265381
317.552918312
317.553387005
317.553722115
317.553961075
317.554131361
317.554253037
317.554340705
317.554404993
317.554453672
317.554492498
317.55452587
317.554557444
317.554591013
317.554631667
317.554683772
317.554736308
317.554714158
317.554702963
317.554691598
316.813638207
316.831150235
316.86303491
316.90435269
316.949787998
316.99518972
317.037610546
317.075373977
317.107791486
317.134846146
317.156921008
317.174600727
317.188539535
317.199380698
317.207712333
317.214047225
317.218817539
317.222378151
317.225014439
317.22695193
317.228366202
317.22939217
317.230132313
317.230663668
317.231043626
317.231314598
317.231507715
317.231645712
317.231745136
317.231818029
317.231873197
317.231917159
317.231954893
317.231990528
317.23202834
317.232074158
317.232133212
317.232193668
317.232166176
317.232152094
317.232139697
316.438895719
316.458911753
316.495270264
316.542240352
316.593731591
316.645029256
316.692835298
316.735302797
316.771697327
316.80203151
316.826757624
316.846545919
316.862138526
316.874261127
316.883574977
316.890655386
316.895986508
316.899965515
316.902911577
316.905076809
316.906657426
316.907804173
316.908631538
316.909225586
316.909650429
316.90995345
316.910169432
316.910323776
316.910434973
316.910516479
316.910578131
316.910627211
316.910669275
316.910708914
316.910750884
316.910801752
316.910867632
316.910936025
316.910902807
316.910885673
316.910872232
316.06413082
316.086812661
316.127905128
316.180805493
316.238595197
316.295973588
316.34929322
316.396547866
316.436970056
316.470612898
316.498005996
316.519910684
316.537160493
316.550565634
316.56086172
316.568687246
316.57457869
316.578975661
316.582231175
316.584623933
316.58637077
316.587638236
316.588552809
316.58920956
316.589679315
316.590014415
316.590253291
316.590424005
316.59054699
316.590637114
316.590705243
316.590759421
316.590805775
316.590849358
316.590895391
316.590951174
316.591023719
316.591099991
316.591060733
316.591040407
316.591025903
315.689306579
315.714841319
315.76096583
315.820111231
315.884470398
315.948133462
316.007106721
316.059238099
316.103741872
316.140723931
316.170800154
316.194828962
316.21373907
316.228427491
316.239705487
316.248275433
316.254726466
316.259540784
316.263105285
316.265725249
316.267638106
316.26902618
316.270027909
316.270747352
316.271262026
316.271629225
316.271891014
316.272078117
316.272212902
316.272311644
316.27238624
316.272445491
316.272496092
316.272543551
316.272593542
316.272654088
316.272733096
316.27281712
316.27277157
316.272747934
316.272732351
315.314374861
315.342977924
315.394474194
315.460218545
315.531447399
315.601617979
315.666395862
315.723499301
315.772141213
315.812493954
315.845269471
315.871429752
315.892002749
315.907974676
315.920233799
315.929547084
315.936556674
315.941787487
315.945660333
315.948507054
315.950585636
315.952094138
315.953182924
315.953965011
315.95452459
315.954923891
315.955208604
315.955412105
315.955558694
315.955666052
315.955747101
315.955811394
315.955866194
315.955917453
315.955971287
315.956036427
315.956121659
315.956213239
315.956161212
315.956134163
315.956117494
314.939274814
314.971193585
315.028447246
315.101186252
315.179615004
315.256534438
315.32727807
315.389453778
315.442292276
315.486047498
315.521538078
315.549836506
315.572074246
315.589329229
315.602568116
315.61262319
315.62018993
315.625836099
315.630016433
315.633089302
315.635333196
315.636961861
315.638137544
315.638982186
315.639586625
315.640018008
315.640325639
315.640545538
315.640703927
315.640819892
315.640907373
315.640976675
315.641035619
315.641090597
315.641148149
315.641217694
315.641308874
315.641407751
315.641349125
315.641318581
315.641300832
314.563931219
314.599449377
314.662896975
314.743071053
314.829060618
314.912988195
314.989867837
315.057219907
315.11431451
315.161503715
315.199724264
315.23016649
315.254069848
315.272606574
315.286823151
315.29761789
315.305739928
315.31179997
315.316286675
315.319584888
315.321993539
315.323741998
315.325004342
315.325911394
315.326560609
315.327024027
315.327354552
315.327590832
315.327761009
315.327885562
315.327979449
315.32805372
315.328116748
315.328175356
315.328236492
315.328310235
315.328407055
315.328512909
315.328447627
315.328413525
315.328394723
314.188252656
314.22769537
314.297830175
314.385927664
314.479870303
314.571082521
314.654276402
314.726911699
314.788322083
314.838975788
314.87993984
314.912530126
314.938098724
314.957914828
314.973106157
314.984637755
314.993312704
314.99978473
315.00457638
315.008098902
315.010671584
315.012539342
315.013888019
315.01485727
315.015551129
315.016046502
315.01639987
315.016652499
315.016834438
315.016967552
315.01706781
315.017147002
315.017214049
315.017276191
315.017340766
315.017418486
315.017520601
315.017633061
315.01756113
315.017523432
315.017503628
313.812129473
313.85586963
313.933248395
314.02980905
314.132128874
314.230918471
314.320611429
314.398638328
314.46442333
314.518570316
314.562289486
314.597030306
314.624262227
314.645354067
314.66151619
314.673781036
314.683005888
314.68988753
314.694982338
314.698727863
314.701463646
314.703450058
314.704884631
314.705915791
314.706654104
314.707181309
314.707557439
314.707826362
314.70802002
314.708161657
314.708268243
314.708352301
314.708423293
314.708488866
314.708556726
314.708638183
314.708745221
314.708863863
314.708785361
314.708744062
314.708723331
313.435431508
313.483897203
313.569148017
313.674766772
313.785920057
313.892594764
313.988976661
314.072503651
314.14272017
314.200386674
314.246870073
314.283761687
314.31265316
314.335015593
314.352143356
314.365136903
314.374907924
314.38219626
314.387592016
314.39155892
314.39445664
314.396560886
314.398080788
314.399173471
314.39995598
314.400514843
314.40091362
314.401198755
314.401404071
314.401554177
314.401667037
314.401755899
314.401830754
314.401899648
314.401970632
314.402055571
314.402167127
314.402291485
314.40220656
314.40216169
314.402140138
313.058005511
313.111689094
313.205520502
313.32085148
313.441326712
313.556207674
313.659471575
313.748605698
313.823307514
313.884516361
313.933769967
313.972809967
314.003355035
314.026981166
314.045068034
314.058784658
314.069097283
314.076788751
314.082482763
314.086669057
314.089727274
314.091948329
314.093552844
314.094706554
314.095532918
314.096123209
314.096544473
314.096845708
314.097062598
314.097221103
314.097340171
314.097433763
314.097512393
314.09758449
314.097658426
314.097746578
314.097862222
314.097991789
314.097900664
314.097852295
314.097830059
312.679672229
312.739141248
312.842352851
312.968113563
313.098431113
313.221850932
313.332191015
313.42703616
313.506272651
313.571042333
313.623068329
313.66425116
313.696441325
313.721322244
313.740360102
313.75479295
313.765641663
313.773731976
313.779720996
313.784124272
313.787341231
313.789677838
313.791366073
313.792580187
313.793449973
313.79407139
313.794514933
313.79483212
313.795060473
313.795227289
313.795352483
313.795450722
313.795533031
313.795608205
313.795684915
313.795775996
313.795895271
313.796029505
313.795932483
313.795880735
313.795857982
312.300223053
312.366133568
312.479628333
312.616604004
312.757315319
312.889615644
313.00722483
313.107879851
313.191694626
313.260038324
313.314834404
313.358150857
313.391974712
313.418099216
313.438078155
313.453218981
313.464597194
313.473081242
313.479361394
313.48397877
313.487352359
313.489802993
313.491573859
313.492847604
313.49376027
313.494412436
313.494877991
313.49521094
313.495450616
313.495625631
313.495756855
313.495859645
313.495945525
313.496023645
313.496102941
313.496196655
313.496319085
313.49645741
313.496354877
313.496299922
313.496276851
311.919416163
311.992528978
312.117327552
312.266375443
312.418061613
312.559590223
312.684657494
312.791214176
312.87964362
312.951568183
313.009126821
313.054563508
313.090006344
313.117360644
313.138268743
313.154107739
313.166007658
313.174879402
313.181446106
313.186274162
313.189801868
313.192364699
313.194216881
313.195549322
313.196504204
313.197186649
313.197673884
313.198022358
313.198273181
313.19845626
313.198593399
313.198700631
313.198789965
313.19887089
313.19895258
313.199048622
313.199173707
313.19931552
313.199207948
313.199150014
313.199126853
311.53697204
311.6181726
311.755429934
311.917483505
312.080753029
312.231860328
312.36456773
312.477108592
312.570180335
312.645685209
312.705992906
312.753531714
312.790575119
312.819142536
312.840965623
312.857491239
312.869903724
312.879156096
312.886003982
312.891038701
312.894717554
312.897390416
312.899322347
312.900712358
312.901708655
312.902420809
312.902929319
312.903293026
312.903554784
312.903745762
312.90388868
312.90400023
312.904092891
312.904176472
312.904260356
312.90435841
312.904485633
312.904630309
312.904518261
312.904457631
312.904434635
311.152568218
311.242891085
311.393915751
311.569988405
311.745473964
311.906508825
312.047028137
312.16562408
312.263355389
312.342431522
312.40546803
312.455085559
312.493706998
312.523467645
312.546189058
312.563387814
312.576302237
312.585927022
312.593049844
312.598286542
312.602113073
312.604893421
312.606903252
312.608349499
312.609386254
312.610127434
312.610656731
312.611035319
312.611307753
312.611506435
312.611654974
312.611770703
312.611866552
312.611952633
312.612038505
312.612138248
312.61226708
312.612413969
312.6122981
312.612235117
312.612212568
310.765833091
310.866492187
311.032768791
311.223956875
311.412310854
311.583615746
311.732104816
311.856812628
311.95920875
312.041837455
312.107574987
312.159241978
312.199414368
312.230344829
312.253945167
312.271801461
312.285205551
312.295193272
312.302583819
312.308017078
312.311987261
312.314872132
312.3169577
312.318458618
312.319534705
312.320304102
312.320853605
312.321246657
312.321529462
312.321735617
312.321889593
312.322009342
312.322108229
312.322196646
312.322284297
312.3223854
312.322515296
312.322663732
312.322544794
312.322479858
312.322458055
310.376338552
310.488764699
310.671979866
310.879464438
311.081352936
311.263258262
311.419857007
311.550716747
311.657769196
311.743921015
311.812323446
311.8660042
311.907695479
311.939768475
311.964225341
311.982721248
311.996600943
312.006940742
312.014590744
312.020214339
312.024323537
312.027309509
312.029468311
312.03102208
312.032136181
312.032932849
312.033501878
312.033908902
312.034201719
312.034415077
312.034574281
312.034697873
312.034799632
312.034890213
312.03497943
312.035081562
312.035211969
312.035361268
312.035240109
312.035173675
312.035152936
309.983591184
310.109478894
310.311551331
310.536598042
310.752693033
310.945510643
311.110336736
311.24736901
311.35905384
311.448687389
311.519709457
311.575361258
311.618533946
311.651718007
311.67700575
311.696120824
311.710460109
311.721139626
311.729039661
311.73484649
311.739089402
311.742172553
311.744401709
311.74600623
311.747156826
311.747979666
311.748567429
311.748987853
311.749290264
311.749510516
311.749674706
311.749801943
311.749906396
311.749998961
311.750089527
311.750192355
311.750322715
311.750472179
311.750349745
311.750282317
311.75026297
309.587021631
309.728387699
309.951502872
310.195459069
310.426428373
310.630444211
310.80358848
310.946791647
311.063067713
311.156128545
311.22971506
311.2872876
311.331898372
311.366157499
311.392246959
311.411958029
311.426738782
311.43774403
311.445883429
311.451865439
311.456236043
311.459411909
311.461708135
311.463361008
311.464546355
311.465394105
311.465999691
311.466432857
311.466744382
311.466971171
311.467140075
311.467270736
311.467377689
311.467472049
311.467563747
311.46766694
311.467796693
311.467945609
311.467822944
311.467755071
311.467737449
309.185971695
309.345228891
309.591878871
309.856166705
310.102661371
310.318127269
310.499648852
310.648996186
310.769803424
310.866222918
310.942307995
311.001742809
311.047742067
311.08303541
311.109893659
311.130174631
311.145376466
311.156691713
311.165058469
311.171206584
311.175698084
311.178961616
311.181321191
311.183019691
311.184237805
311.185109028
311.185731398
311.186176552
311.186496643
311.186729565
311.186902875
311.187036716
311.18714596
311.187241918
311.187334528
311.187437762
311.187566349
311.187713989
311.187592235
311.187524502
311.187508934
308.779678546
308.959728712
309.232757709
309.518861619
309.781500323
310.008624988
310.198546306
310.353983169
310.479240927
310.578935211
310.657441523
310.718671455
310.766002919
310.802284456
310.829874549
310.850696213
310.866296326
310.877903975
310.886484648
310.892788702
310.897393473
310.900739001
310.903157737
310.904898794
310.906147435
310.907040505
310.907678479
310.908134769
310.908462806
310.908701405
310.908878778
310.909015527
310.909126837
310.909224186
310.909317492
310.909420448
310.909547318
310.909692938
310.909573333
310.909506355
310.909493156
308.367255291
308.571607471
308.874263481
309.18370985
309.463059939
309.701999245
309.90030087
310.061741939
310.191347375
310.294216316
310.375054401
310.438003082
310.4866034
310.523821632
310.552102373
310.573432209
310.589405237
310.601285713
310.610065345
310.616514012
310.621223552
310.624644743
310.627117958
310.628898132
310.630174789
310.63108788
310.631740137
310.632206603
310.63254189
310.632785653
310.632966706
310.633106067
310.633219199
310.633317725
310.633411511
310.633513883
310.633638497
310.633781335
310.63366521
310.633599624
310.633589082
307.947666891
308.180587885
308.516580675
308.850906739
309.147461607
309.398308389
309.604923914
309.772250512
309.906077112
310.012003375
310.095070986
310.159652365
310.209450744
310.247548412
310.276474124
310.298276134
310.31459401
310.326725654
310.335687686
310.34226842
310.347073301
310.350563126
310.353085617
310.354901082
310.356202958
310.357134033
310.357799096
310.35827467
310.358616428
310.358864788
310.359049096
310.359190745
310.359305437
310.359404917
310.359498968
310.359600468
310.359722305
310.359861575
310.359750353
310.359686811
310.359679171
307.519700146
307.78640721
308.159972509
308.520680623
308.834833274
309.097606926
309.312417941
309.485475551
309.623371777
309.732219988
309.817401511
309.883519417
309.934437294
309.973351117
310.002871439
310.025105978
310.041737811
310.054096781
310.06322298
310.069921956
310.074811782
310.078362483
310.080928503
310.08277503
310.084099029
310.085045834
310.085722066
310.086205561
310.086552931
310.086805258
310.086992357
310.087135938
310.08725191
310.087352111
310.087446219
310.087546577
310.087665141
310.087800027
310.087695223
310.087634389
310.087629829
307.081926051
307.388834604
307.804803757
308.193295858
308.5253088
308.799945122
309.022776428
309.201372434
309.343160556
309.454776575
309.541942523
309.609490293
309.661441037
309.701101476
309.73116118
309.753784817
309.770696778
309.783256964
309.792527355
309.799329421
309.804292791
309.807895855
309.810499093
309.812372031
309.813714749
309.814674804
309.815360403
309.815850514
309.816202548
309.816458152
309.816647531
309.816792661
309.816909613
309.817010293
309.817104252
309.817203225
309.817318057
309.817447702
309.817350919
309.817293473
309.817292072
306.632652329
306.987695698
307.451569085
307.869054531
308.219026631
308.50536851
308.735983689
308.919885432
309.065360573
309.179570896
309.268577493
309.337437651
309.390326318
309.430657384
309.461196215
309.48416161
309.501316836
309.514049786
309.523442599
309.530331234
309.535355713
309.539001849
309.541635412
309.543529683
309.544887397
309.545857988
309.546550984
309.547046281
309.547401944
309.547660071
309.547851178
309.547997441
309.548115054
309.54821596
309.54830957
309.548406945
309.548517634
309.548641133
309.548554055
309.548500705
309.548502401
306.169863265
306.582907114
307.100928103
307.548295921
307.916127636
308.213917334
308.452014794
308.640948
308.789877423
308.906488737
308.9971776
309.067221616
309.120944747
309.161863841
309.192816396
309.216072198
309.233430717
309.246305583
309.255797208
309.262754494
309.267826587
309.271505711
309.274162115
309.276072202
309.277440869
309.278419046
309.279117294
309.279616225
309.279974391
309.280234224
309.280426458
309.28057341
309.280691345
309.280792215
309.28088528
309.28098088
309.281087076
309.281203458
309.281127847
309.281079359
309.281083888
305.691143033
306.174524691
306.753748573
307.231392334
307.616751973
307.925625972
308.170835518
308.364483175
308.516605855
308.635404751
308.72760268
308.798690795
308.853136285
308.894554082
308.925849718
308.9493405
308.966859179
308.979842674
308.989407638
308.996414237
309.001519379
309.005220602
309.007891766
309.009811708
309.011186958
309.012169534
309.012870719
309.013371605
309.013731059
309.013991715
309.014184434
309.014331597
309.014449495
309.014550055
309.014642384
309.014736074
309.014837511
309.014945723
309.014883406
309.014840648
309.014847467
305.193577538
305.762810607
306.411159474
306.918739388
307.321034918
307.640522397
307.892402325
308.090404085
308.245430591
308.366183452
308.459702335
308.531683484
308.586730497
308.628550886
308.660113669
308.683779887
308.701412405
308.714468787
308.724079736
308.731114882
308.736237435
308.739949064
308.742626306
308.744549702
308.745926842
308.746910392
308.747612026
308.748113064
308.748472501
308.748733037
308.748925551
308.74907242
308.749189902
308.749289867
308.74938127
308.749472961
308.749569479
308.749668372
308.749621219
308.749585237
308.749593422
304.673628126
305.348326568
306.074615849
306.610737988
307.029101723
307.358627805
307.616662384
307.818614563
307.976227279
308.098680345
308.193317192
308.266029002
308.321547968
308.363668037
308.395416735
308.419194723
308.436891568
308.449982642
308.45961035
308.466651859
308.471775112
308.475484657
308.478158706
308.480078718
308.481452734
308.4824336
308.483133026
308.48363229
308.483990319
308.484249726
308.484441305
308.484587342
308.484704009
308.484803084
308.484893371
308.484983024
308.4850746
308.485162911
308.485132803
308.48510493
308.485113048
304.126968405
304.932062975
305.745977617
306.307764165
306.741061819
307.079956567
307.343553574
307.549009864
307.708863572
307.832743185
307.928280285
308.001549178
308.057401852
308.099711935
308.131560049
308.155382052
308.173090552
308.186175695
308.195789084
308.202813373
308.207919568
308.211613753
308.214274757
308.216184119
308.217549686
308.218523984
308.219218379
308.219713828
308.220068972
308.220326183
308.220516051
308.220660693
308.220776129
308.220874003
308.220962979
308.22105061
308.221137397
308.221213739
308.221202505
308.221184518
308.221190471
303.548272441
304.515617761
305.427604676
306.010121425
306.457003084
306.804516719
307.073004456
307.281477476
307.44320031
307.568213336
307.664418552
307.738059936
307.794099534
307.836483313
307.868339163
307.892133403
307.909797781
307.922833994
307.93240018
307.9393823
307.944452655
307.948117449
307.950754994
307.952646032
307.953997524
307.954961153
307.955647538
307.956137014
307.956487715
307.956741606
307.956928951
307.957071605
307.957185378
307.95728173
307.957369185
307.95745486
307.957537239
307.957600102
307.957609424
307.95760375
307.957604598
)
;

boundaryField
{
    inout
    {
        type            empty;
    }
    top
    {
        type            fixedValue;
        value           nonuniform List<scalar> 
41
(
303.23960558
304.308530846
305.275037705
305.864044796
306.316995361
306.668414006
306.938969323
307.148687785
307.311146596
307.436570317
307.532986525
307.6067165
307.662772008
307.705131232
307.736942588
307.760685102
307.778298027
307.791287125
307.800812396
307.807760302
307.812802858
307.816445576
307.81906592
307.820943763
307.822285264
307.823241404
307.823922221
307.82440758
307.824755244
307.825006886
307.825192545
307.825333897
307.825446613
307.825542038
307.825628617
307.825713371
307.825793884
307.825849211
307.825869524
307.825871137
307.825867937
)
;
    }
    bottom
    {
        type            fixedValue;
        value           uniform 320;
    }
    frontback
    {
        type            empty;
    }
}


// ************************************************************************* //
