/*--------------------------------*- C++ -*----------------------------------*\
| =========                 |                                                 |
| \\      /  F ield         | OpenFOAM: The Open Source CFD Toolbox           |
|  \\    /   O peration     | Version:  2112                                  |
|   \\  /    A nd           | Website:  www.openfoam.com                      |
|    \\/     M anipulation  |                                                 |
\*---------------------------------------------------------------------------*/
FoamFile
{
    version     2.0;
    format      ascii;
    arch        "LSB;label=32;scalar=64";
    class       volVectorField;
    location    "0.6";
    object      flux;
}
// * * * * * * * * * * * * * * * * * * * * * * * * * * * * * * * * * * * * * //

dimensions      [0 1 -1 1 0 0 0];

internalField   nonuniform List<vector> 
1681
(
(2622.54551531 -14.5924491194 0)
(0.0134063728378 -14.4982278031 0)
(0.0202359278042 -14.3239168433 0)
(0.0245914320349 -14.0929766344 0)
(0.0265206183005 -13.8315435463 0)
(0.0264710551898 -13.5620954599 0)
(0.0250123020656 -13.3017662025 0)
(0.0227056552338 -13.0616027495 0)
(0.0199994694947 -12.8474962595 0)
(0.0172109365321 -12.6615222768 0)
(0.0145415542102 -12.5032307065 0)
(0.0121046693477 -12.3706720542 0)
(0.00995228738257 -12.2611342251 0)
(0.00809679046114 -12.1716316261 0)
(0.00652681822565 -12.0992074392 0)
(0.00521813316158 -12.0411052596 0)
(0.00414068142398 -11.9948542935 0)
(0.00326296664728 -11.9582999932 0)
(0.00255461118524 -11.9296019456 0)
(0.0019877354098 -11.9072134019 0)
(0.00153758864745 -11.8898516605 0)
(0.00118272121735 -11.8764650306 0)
(0.000904886854345 -11.8661998082 0)
(0.000688797237804 -11.8583692111 0)
(0.000521805737778 -11.8524252766 0)
(0.000393568223801 -11.8479341284 0)
(0.000295709746194 -11.8445546613 0)
(0.000221513624247 -11.8420204764 0)
(0.00016564159488 -11.8401247843 0)
(0.000123888751346 -11.8387079375 0)
(9.29742935878e-05 -11.8376472339 0)
(7.03698232043e-05 -11.836848634 0)
(5.41743076889e-05 -11.8362400005 0)
(4.30463614851e-05 -11.8357653184 0)
(3.61011165828e-05 -11.8353792716 0)
(3.22118889557e-05 -11.8350434177 0)
(2.7759067173e-05 -11.8347345563 0)
(1.4616651177e-05 -11.8344863775 0)
(4.30765281107e-06 -11.834443507 0)
(-3.5677768518e-08 -11.8344044902 0)
(-2622.81646701 -11.8344437094 0)
(2619.63634932 -14.5947333044 0)
(0.0403000823735 -14.4998909434 0)
(0.0608143059318 -14.3245772456 0)
(0.0738832273739 -14.0925013838 0)
(0.0796556165961 -13.8300223541 0)
(0.0794844135696 -13.5597445005 0)
(0.0750862400128 -13.2988202583 0)
(0.0681483333718 -13.0582660624 0)
(0.06001662505 -12.8439241101 0)
(0.0516421740665 -12.6578223196 0)
(0.0436284903038 -12.4994721261 0)
(0.0363146269315 -12.3668961947 0)
(0.0298557982543 -12.2573637453 0)
(0.024288566725 -12.1678773914 0)
(0.0195784550653 -12.0954733045 0)
(0.0156524959734 -12.0373912022 0)
(0.012420371863 -11.9911583669 0)
(0.00978750292416 -11.9546194885 0)
(0.00766270706761 -11.9259340401 0)
(0.00596232162004 -11.9035554903 0)
(0.00461208561094 -11.8862014974 0)
(0.0035476492412 -11.8728207657 0)
(0.00271427704185 -11.8625599654 0)
(0.00206610907463 -11.8547326424 0)
(0.00156521080931 -11.8487911073 0)
(0.00118055484791 -11.8443017042 0)
(0.000887020661109 -11.8409235015 0)
(0.000664461759055 -11.8383902341 0)
(0.000496866167241 -11.836495215 0)
(0.000371621332931 -11.835078874 0)
(0.000278886413555 -11.8340185679 0)
(0.000211076852178 -11.8332203036 0)
(0.000162488810737 -11.8326119889 0)
(0.000129099428513 -11.8321376672 0)
(0.000108279028696 -11.8317520462 0)
(9.67311739967e-05 -11.831416298 0)
(8.36489721902e-05 -11.8311057346 0)
(4.35932090899e-05 -11.8308525768 0)
(1.20698161497e-05 -11.8308193776 0)
(-4.80978945568e-09 -11.8307866118 0)
(-2620.44976344 -11.8308184395 0)
(2616.72659046 -14.599331109 0)
(0.0674375845868 -14.5032467485 0)
(0.101713839719 -14.325908461 0)
(0.123502410336 -14.0915514645 0)
(0.13307199496 -13.8269777884 0)
(0.13271147435 -13.5550397416 0)
(0.125307989687 -13.2929269595 0)
(0.113684884876 -13.0515934732 0)
(0.100088218061 -12.8367827895 0)
(0.0861013333361 -12.65042721 0)
(0.0727267791799 -12.4919611638 0)
(0.0605263455128 -12.3593516875 0)
(0.0497560480514 -12.2498307164 0)
(0.040474878608 -12.1603773589 0)
(0.0326240560747 -12.0880138295 0)
(0.0260811206855 -12.0299721369 0)
(0.0206950241473 -11.9837757493 0)
(0.0163078320015 -11.9472678529 0)
(0.0127674108276 -11.9186077074 0)
(0.0099342439617 -11.8962492262 0)
(0.00768453357206 -11.8789107936 0)
(0.00591102761108 -11.8655419084 0)
(0.00452251151789 -11.8552899923 0)
(0.00344256886956 -11.8474692491 0)
(0.00260799336734 -11.8415325382 0)
(0.00196708937459 -11.8370466459 0)
(0.00147800376869 -11.8336709881 0)
(0.00110717092803 -11.8311395684 0)
(0.000827913623196 -11.8292459048 0)
(0.000619218169168 -11.827830583 0)
(0.00046468837158 -11.8267710781 0)
(0.00035168563133 -11.8259734898 0)
(0.000270701577745 -11.8253658125 0)
(0.000215034886 -11.8248921958 0)
(0.000180374966486 -11.8245074028 0)
(0.000161474209802 -11.8241720479 0)
(0.000140503299342 -11.823859215 0)
(7.18880631439e-05 -11.8235985517 0)
(1.75006574443e-05 -11.823580518 0)
(1.51946198293e-07 -11.8235580757 0)
(-2618.084146 -11.8235806302 0)
(2613.81583375 -14.6063035954 0)
(0.0949846119583 -14.5083465368 0)
(0.143153362726 -14.3279329704 0)
(0.173669361899 -14.0901305671 0)
(0.18695796117 -13.8224062019 0)
(0.186294579362 -13.5479763316 0)
(0.175775493698 -13.2840844289 0)
(0.159377167371 -13.0415875824 0)
(0.140249877688 -12.8260793185 0)
(0.120606499203 -12.6393476467 0)
(0.101843594818 -12.4807113253 0)
(0.0847407164078 -12.3480540825 0)
(0.0696506639706 -12.2385521432 0)
(0.056651944109 -12.1491495607 0)
(0.0456594994633 -12.0768477754 0)
(0.0365001120051 -12.0188673495 0)
(0.028961228663 -11.9727261106 0)
(0.0228211113001 -11.9362650434 0)
(0.0178664323941 -11.9076431241 0)
(0.0139017043919 -11.8853149567 0)
(0.0107535491896 -11.8680000305 0)
(0.00827180950533 -11.8546490471 0)
(0.00632880888348 -11.8444105629 0)
(0.00481759987816 -11.8365997744 0)
(0.00364973145415 -11.8306703678 0)
(0.00275286488281 -11.8261897958 0)
(0.00206843617216 -11.8228179984 0)
(0.00154947840866 -11.8202893842 0)
(0.00115866323612 -11.8183977806 0)
(0.000866586680745 -11.8169840082 0)
(0.000650305066857 -11.815925721 0)
(0.000492129959427 -11.8151291591 0)
(0.000378747609736 -11.8145224423 0)
(0.000300781384005 -11.8140498619 0)
(0.000252308609899 -11.8136662766 0)
(0.000226368718888 -11.8133317739 0)
(0.000198348204982 -11.8130172124 0)
(9.93326183856e-05 -11.8127490427 0)
(2.01650184028e-05 -11.8127474318 0)
(-2.7240294465e-08 -11.8127362327 0)
(-2615.7203357 -11.8127522835 0)
(2610.90366043 -14.615744736 0)
(0.12311170959 -14.515260416 0)
(0.185357033656 -14.3306859597 0)
(0.22460776404 -14.0882461836 0)
(0.241502842064 -13.8163029309 0)
(0.240375828934 -13.5385479709 0)
(0.226585739523 -13.2722910506 0)
(0.205285906967 -13.0282536534 0)
(0.180536205192 -12.8118256856 0)
(0.155174931976 -12.6246012012 0)
(0.130985492033 -12.4657444466 0)
(0.108958181935 -12.3330283302 0)
(0.0895369524092 -12.2235552022 0)
(0.0728157521611 -12.1342227564 0)
(0.0586804983028 -12.0620050344 0)
(0.0469054536535 -12.0041075545 0)
(0.0372154853808 -11.9580407735 0)
(0.0293244292979 -11.9216428429 0)
(0.0229574281588 -11.8930724275 0)
(0.0178628626694 -11.8707850972 0)
(0.0138177155041 -11.8535018445 0)
(0.0106289211355 -11.840174995 0)
(0.00813236604428 -11.829954633 0)
(0.00619060789635 -11.8221572887 0)
(0.00468998909709 -11.8162377587 0)
(0.00353756325467 -11.8117643908 0)
(0.00265808607898 -11.8083978285 0)
(0.0019912144758 -11.8058730246 0)
(0.00148898882466 -11.803984222 0)
(0.00111363008849 -11.8025725575 0)
(0.000835658203899 -11.8015159265 0)
(0.000632341379282 -11.8007207575 0)
(0.000486561014174 -11.8001153353 0)
(0.00038626801752 -11.7996441267 0)
(0.000323992553728 -11.7992621289 0)
(0.000291287064915 -11.7989289891 0)
(0.000257049540184 -11.7986135665 0)
(0.000125844174508 -11.7983387277 0)
(2.00626631273e-05 -11.7983533372 0)
(-8.18383100421e-07 -11.7983525371 0)
(-2613.3590483 -11.7983647149 0)
(2607.98963272 -14.627780871 0)
(0.151996367206 -14.524079857 0)
(0.228556209205 -14.3342128719 0)
(0.276545967669 -14.0859070472 0)
(0.296897603713 -13.8086598965 0)
(0.295096955408 -13.5267446574 0)
(0.277834357192 -13.2575432837 0)
(0.251470240384 -13.011597432 0)
(0.220980368133 -12.794036622 0)
(0.189822747006 -12.6062100228 0)
(0.160158169023 -12.4470883203 0)
(0.13317856528 -12.3143063315 0)
(0.109411778733 -12.2048747234 0)
(0.088961977661 -12.115633854 0)
(0.0716825398309 -12.043523999 0)
(0.0572929641824 -11.9857322205 0)
(0.0454541709972 -11.939760003 0)
(0.0358147805174 -11.9034421175 0)
(0.028037981526 -11.8749369476 0)
(0.0218158209766 -11.8527013416 0)
(0.016875569621 -11.835458219 0)
(0.0129812518049 -11.8221619678 0)
(0.00993235015631 -11.8119646053 0)
(0.00756097473814 -11.8041843455 0)
(0.00572831103208 -11.7982773865 0)
(0.00432085092586 -11.793813204 0)
(0.00324670941215 -11.7904533296 0)
(0.00243219971441 -11.7879334023 0)
(0.00181875664701 -11.7860481903 0)
(0.0013602457881 -11.7846392299 0)
(0.00102066507488 -11.783584722 0)
(0.00077224819976 -11.7827913342 0)
(0.000594073758224 -11.782187556 0)
(0.000471422647143 -11.781718065 0)
(0.000395336144283 -11.7813380412 0)
(0.000356081201456 -11.781006798 0)
(0.000316400478012 -11.7806915104 0)
(0.000151378486739 -11.7804112859 0)
(1.740313286e-05 -11.7804411963 0)
(-2.30279214696e-06 -11.7804492586 0)
(-2611.00099225 -11.7804594382 0)
(2605.07328828 -14.6425719278 0)
(0.181825309412 -14.5349191809 0)
(0.272991595618 -14.3385689017 0)
(0.329718359115 -14.0831223092 0)
(0.353335320023 -13.7994650891 0)
(0.350599151494 -13.5125524813 0)
(0.329615184588 -13.2398357184 0)
(0.297987239307 -12.9916253645 0)
(0.261613687044 -12.772729907 0)
(0.224564592328 -12.584201185 0)
(0.189366230291 -12.4247770619 0)
(0.157400901305 -12.2919273157 0)
(0.129271447914 -12.1825535776 0)
(0.105085897043 -12.0934283069 0)
(0.0846608249891 -12.0214519683 0)
(0.0676582528628 -11.9637899864 0)
(0.0536735059935 -11.9179334298 0)
(0.0422890403754 -11.8817132492 0)
(0.0331055833253 -11.8532876465 0)
(0.0257586083946 -11.831115108 0)
(0.0199255902722 -11.8139209346 0)
(0.0153276438764 -11.8006620376 0)
(0.0117278904984 -11.7904927869 0)
(0.00892805165614 -11.7827334422 0)
(0.00676421740322 -11.7768419011 0)
(0.00510237462893 -11.7723890085 0)
(0.00383404641541 -11.7690373728 0)
(0.00287224233524 -11.7665234664 0)
(0.00214782330215 -11.7646426955 0)
(0.0016063237432 -11.7632370827 0)
(0.00120523735462 -11.7621852011 0)
(0.000911774571774 -11.7613940094 0)
(0.000701214840264 -11.7607922446 0)
(0.000556170984711 -11.7603248306 0)
(0.000466245957627 -11.7599471785 0)
(0.000420593226664 -11.7596183835 0)
(0.00037615197398 -11.7593042852 0)
(0.000175906990114 -11.7590202351 0)
(1.2468116808e-05 -11.7590641589 0)
(-4.46675807869e-06 -11.7590795533 0)
(-2608.64686656 -11.7590889823 0)
(2602.15413449 -14.6603133763 0)
(0.212796972416 -14.5479167653 0)
(0.318915583534 -14.343818776 0)
(0.384366730187 -14.079900897 0)
(0.411011569291 -13.7887022904 0)
(0.407022829564 -13.4959537681 0)
(0.382019780559 -13.2191615672 0)
(0.344891402648 -12.9683453093 0)
(0.302465204036 -12.7479272014 0)
(0.259413316041 -12.5586075839 0)
(0.218612942874 -12.3988520454 0)
(0.181623262136 -12.2659388031 0)
(0.149111580498 -12.1566436615 0)
(0.121182299518 -12.0676611208 0)
(0.0976102039405 -11.9958461753 0)
(0.0779966718791 -11.9383397071 0)
(0.061869518435 -11.8926211148 0)
(0.0487439371806 -11.8565172144 0)
(0.0381576097661 -11.8281862101 0)
(0.029689163347 -11.8060886411 0)
(0.0229661836903 -11.7889526823 0)
(0.0176668813562 -11.7757382536 0)
(0.0135180692498 -11.7656025163 0)
(0.0102911518902 -11.7578681505 0)
(0.00779719775746 -11.7519950631 0)
(0.00588175659384 -11.7475557159 0)
(0.00441981783301 -11.7442139903 0)
(0.00331113516907 -11.7417073447 0)
(0.0024760333846 -11.7398319404 0)
(0.00185174468228 -11.7384303767 0)
(0.00138927973961 -11.7373816686 0)
(0.00105083949395 -11.7365931212 0)
(0.000807909513617 -11.7359937629 0)
(0.000640435865608 -11.7355288031 0)
(0.000536625582906 -11.7351539347 0)
(0.000484659866306 -11.7348281562 0)
(0.00043603013878 -11.7345163273 0)
(0.000199403739514 -11.7342301759 0)
(5.53949864109e-06 -11.7342866641 0)
(-7.26746570653e-06 -11.7343081621 0)
(-2606.29735854 -11.7343176378 0)
(2599.23164226 -14.6812386425 0)
(0.245124229472 -14.5632361091 0)
(0.366594769282 -14.350036313 0)
(0.440741656237 -14.0762505853 0)
(0.470124745806 -13.7763505537 0)
(0.464507296125 -13.4769270746 0)
(0.435136876339 -13.1955130736 0)
(0.392234112471 -12.9417671938 0)
(0.343561232124 -12.719654834 0)
(0.294379623533 -12.5294687876 0)
(0.247899986454 -12.3693627855 0)
(0.205842578087 -12.2363975083 0)
(0.168926984374 -12.1272068202 0)
(0.137245394278 -12.038397794 0)
(0.110525107741 -11.9667747454 0)
(0.0883032649624 -11.9094514298 0)
(0.0700380045327 -11.8638945402 0)
(0.0551760213018 -11.8279265903 0)
(0.0431912979781 -11.7997060674 0)
(0.0336053139644 -11.7776960428 0)
(0.0259956677714 -11.7606281014 0)
(0.0199976770743 -11.747465688 0)
(0.0153019111113 -11.7373692154 0)
(0.0116495423005 -11.7296641749 0)
(0.00882670433206 -11.723812804 0)
(0.00665858918159 -11.7193894404 0)
(0.00500372066046 -11.7160594421 0)
(0.00374865231865 -11.7135614121 0)
(0.00280321689149 -11.7116923904 0)
(0.00209637810936 -11.7102956472 0)
(0.00157268845531 -11.7092507132 0)
(0.00118935570642 -11.7084652978 0)
(0.000914078467642 -11.7078687682 0)
(0.000724136632831 -11.7074066604 0)
(0.000606375329609 -11.7070350046 0)
(0.000548114706814 -11.7067128284 0)
(0.000495748044984 -11.7064043564 0)
(0.000221839631004 -11.7061179078 0)
(-3.12912300812e-06 -11.7061854671 0)
(-1.06615123365e-05 -11.7062121908 0)
(-2603.9531414 -11.7062221875 0)
(2596.30523954 -14.7056219885 0)
(0.27903743831 -14.5810668476 0)
(0.416312688301 -14.3573036683 0)
(0.499103882059 -14.0721767147 0)
(0.53087627143 -13.7623833991 0)
(0.523190325575 -13.455447007 0)
(0.489051756706 -13.1688818026 0)
(0.440063050576 -12.9119035792 0)
(0.384924885276 -12.6879445011 0)
(0.329471725728 -12.496831794 0)
(0.277227198735 -12.336367722 0)
(0.230054455202 -12.20337014 0)
(0.188711523367 -12.0943156605 0)
(0.15326871448 -12.0057151448 0)
(0.123399476774 -11.9343175392 0)
(0.0985727129087 -11.8772072518 0)
(0.0781744863276 -11.8318374827 0)
(0.0615816317504 -11.7960264409 0)
(0.0482037192826 -11.7679332875 0)
(0.0375047565489 -11.7460241791 0)
(0.0290122546366 -11.7290346963 0)
(0.0223186585614 -11.7159323597 0)
(0.0170783718786 -11.7058813185 0)
(0.0130024341518 -11.6982102854 0)
(0.00985214465822 -11.6923841647 0)
(0.00743242899052 -11.6879794395 0)
(0.00558542347935 -11.6846631583 0)
(0.00418454551095 -11.6821752358 0)
(0.00312918637173 -11.6803137193 0)
(0.00234008011949 -11.678922651 0)
(0.00175534961261 -11.6778821546 0)
(0.00132722849473 -11.677100406 0)
(0.00101963699343 -11.6765071612 0)
(0.000807188572643 -11.676048328 0)
(0.000675391982783 -11.6756803325 0)
(0.000610789502921 -11.6753623613 0)
(0.000555014268792 -11.6750583307 0)
(0.000243181611159 -11.6747734058 0)
(-1.33171077273e-05 -11.6748505545 0)
(-1.46115550997e-05 -11.6748819122 0)
(-2601.61487167 -11.6748926581 0)
(2593.37430449 -14.7337819392 0)
(0.314787893519 -14.6016257839 0)
(0.468372795872 -14.3657102339 0)
(0.559725710062 -14.0676805441 0)
(0.593470687329 -13.7467677482 0)
(0.583207615424 -13.4314839003 0)
(0.543845561895 -13.1392588601 0)
(0.488421572786 -12.8787701792 0)
(0.426575589172 -12.6528339224 0)
(0.364694979351 -12.4607517419 0)
(0.306592317258 -12.2999349503 0)
(0.254252990386 -12.1669341425 0)
(0.208457983406 -12.0580543018 0)
(0.169245018537 -11.9697020752 0)
(0.136226686344 -11.8985669288 0)
(0.108799276261 -11.8417021109 0)
(0.0862741667074 -11.796546817 0)
(0.0679568603371 -11.7609151336 0)
(0.0531917503442 -11.7329674086 0)
(0.0413850322036 -11.7111735191 0)
(0.0320140316542 -11.6942736832 0)
(0.0246283526415 -11.6812400877 0)
(0.0188463259752 -11.6712411322 0)
(0.0143489730622 -11.6636091823 0)
(0.0108728735104 -11.6578121623 0)
(0.00820279044642 -11.6534289847 0)
(0.00616456139509 -11.6501286129 0)
(0.00461854011613 -11.6476524492 0)
(0.00345373386106 -11.645799686 0)
(0.00258269105569 -11.6444152433 0)
(0.00193713744479 -11.6433799218 0)
(0.00146435439428 -11.6426024293 0)
(0.00112449407413 -11.6420129652 0)
(0.000889502375091 -11.6415578571 0)
(0.000743568664762 -11.64119399 0)
(0.000672515057973 -11.6408808433 0)
(0.000613539143743 -11.6405823281 0)
(0.000263394864433 -11.6403007182 0)
(-2.4830395105e-05 -11.640386004 0)
(-1.90822275236e-05 -11.6404215887 0)
(-2599.28318649 -11.6404331117 0)
(2590.438158 -14.7660853626 0)
(0.352651779358 -14.625157969 0)
(0.52310173627 -14.375351153 0)
(0.622892379205 -14.0627572174 0)
(0.6581156002 -13.7294626226 0)
(0.644692103205 -13.4050033979 0)
(0.599594500918 -13.1066350825 0)
(0.537348038104 -12.8423863723 0)
(0.468528572739 -12.6143674943 0)
(0.400051520153 -12.4212926136 0)
(0.335990718611 -12.2601429401 0)
(0.278430584901 -12.1271784197 0)
(0.228157936819 -12.0185191074 0)
(0.185166189074 -11.930460311 0)
(0.148999469636 -11.8596285511 0)
(0.118976735281 -11.8030445519 0)
(0.0943318817894 -11.7581332961 0)
(0.0742975134214 -11.7227051319 0)
(0.0581520421858 -11.6949222415 0)
(0.0452435016304 -11.6732589483 0)
(0.0349989409237 -11.6564608122 0)
(0.0269251687568 -11.6435053206 0)
(0.020604552943 -11.6335656704 0)
(0.0156882281281 -11.625978336 0)
(0.0118881841908 -11.6202146347 0)
(0.00896913888207 -11.6158562077 0)
(0.00674073056976 -11.6125741715 0)
(0.00505033088519 -11.6101116029 0)
(0.00377662756208 -11.6082689853 0)
(0.00282403296838 -11.6068922307 0)
(0.00211791240513 -11.605862906 0)
(0.00160061981156 -11.6050903222 0)
(0.00122855144363 -11.6045051802 0)
(0.000970983599921 -11.6040542797 0)
(0.000810794744135 -11.6036950314 0)
(0.000733121901815 -11.603387344 0)
(0.000671039270444 -11.6030954026 0)
(0.000282446421815 -11.6028188366 0)
(-3.74911920198e-05 -11.6029108309 0)
(-2.40330860968e-05 -11.6029503208 0)
(-2596.95870073 -11.602962477 0)
(2587.49605582 -14.8029523296 0)
(0.392934735432 -14.6519378377 0)
(0.580852946192 -14.3863253792 0)
(0.68890341614 -14.0573933068 0)
(0.725021451229 -13.7104176182 0)
(0.70777312344 -13.3759659632 0)
(0.656368967021 -13.0710012283 0)
(0.586875090438 -12.8027757353 0)
(0.510794340902 -12.5725969614 0)
(0.435539890195 -12.3785279507 0)
(0.365415156043 -12.2170812589 0)
(0.302577756918 -12.0842040607 0)
(0.247801605143 -11.975819414 0)
(0.201023129802 -11.8881051399 0)
(0.161709838162 -11.8176220566 0)
(0.129098327256 -11.7613574889 0)
(0.102342050717 -11.7167223269 0)
(0.0805990712564 -11.6815237835 0)
(0.0630809870584 -11.6539266694 0)
(0.0490773180738 -11.6324105786 0)
(0.0379647571926 -11.6157271855 0)
(0.0292073809994 -11.6028599621 0)
(0.0223517228993 -11.592987485 0)
(0.0170191802047 -11.5854508222 0)
(0.0128972991628 -11.579725079 0)
(0.00973088307903 -11.5753949432 0)
(0.00731348235636 -11.5721339368 0)
(0.00547957736107 -11.5696870109 0)
(0.00409760830733 -11.5678560963 0)
(0.00306390691413 -11.5664882198 0)
(0.00229751913663 -11.5654658107 0)
(0.00173589954772 -11.5646988602 0)
(0.00133170258539 -11.5641186337 0)
(0.00105153213087 -11.563672459 0)
(0.000876955801459 -11.5633183435 0)
(0.00079244082873 -11.5630167647 0)
(0.000727240624044 -11.5627324363 0)
(0.000300309198242 -11.5624625583 0)
(-5.11272418631e-05 -11.5625598391 0)
(-2.94114448463e-05 -11.5626029137 0)
(-2594.64200393 -11.5626154084 0)
(2584.54717997 -14.844861904 0)
(0.435977169445 -14.6822703862 0)
(0.642010642467 -14.3987331862 0)
(0.758073931395 -14.0515638789 0)
(0.794401068921 -13.6895711553 0)
(0.772575381202 -13.3443263384 0)
(0.714232546484 -13.032348186 0)
(0.637028891471 -12.7599666089 0)
(0.553378129666 -12.5275821154 0)
(0.47115466065 -12.3325415857 0)
(0.394855496603 -12.1708513057 0)
(0.32668295389 -12.0381250694 0)
(0.267377720978 -11.9300782617 0)
(0.21680566055 -11.842766148 0)
(0.174348999844 -11.7726818565 0)
(0.139156681219 -11.7167789641 0)
(0.110298622865 -11.6724547418 0)
(0.086856644923 -11.6375141048 0)
(0.0679746831741 -11.6101254433 0)
(0.0528833984105 -11.5887745534 0)
(0.0409090642138 -11.5722200716 0)
(0.0314731088548 -11.5594521916 0)
(0.0240863809237 -11.5496554932 0)
(0.0183407093419 -11.5421761539 0)
(0.0138993600028 -11.5364934872 0)
(0.0104873673178 -11.5321955661 0)
(0.0078823170329 -11.5289585881 0)
(0.00590589899046 -11.5265295921 0)
(0.00441638578079 -11.5247121252 0)
(0.00330209007059 -11.5233544611 0)
(0.00247578431181 -11.5223399963 0)
(0.00187005522548 -11.521579485 0)
(0.00143383168097 -11.5210048258 0)
(0.00113104162795 -11.5205639354 0)
(0.000941933606232 -11.5202154917 0)
(0.000850303347282 -11.5199206839 0)
(0.000781880563128 -11.5196449856 0)
(0.000316965861199 -11.5193833421 0)
(-6.55622856037e-05 -11.5194844705 0)
(-3.51469523009e-05 -11.5195307474 0)
(-2592.33365706 -11.5195431541 0)
(2581.59062936 -14.8923590447 0)
(0.482160478993 -14.7164923541 0)
(0.706994247663 -14.4126729965 0)
(0.830735822327 -14.0452290158 0)
(0.866468959324 -13.666848502 0)
(0.839217717302 -13.3100329689 0)
(0.773240912916 -12.9906672137 0)
(0.687828304549 -12.713992698 0)
(0.596279345539 -12.479391516 0)
(0.506886052136 -12.2834283845 0)
(0.424298459312 -12.1215670432 0)
(0.350732365716 -11.9890690865 0)
(0.286873389419 -11.8814331131 0)
(0.232502410838 -11.7945879419 0)
(0.18690727495 -11.7249578533 0)
(0.149143750211 -11.6694628899 0)
(0.118195022575 -11.6254875526 0)
(0.0930649309403 -11.5908355462 0)
(0.0728288973293 -11.5636799588 0)
(0.0566583924242 -11.5425138342 0)
(0.0438292295669 -11.526103699 0)
(0.0337202966722 -11.5134472651 0)
(0.0258069304334 -11.5037357835 0)
(0.0196515814103 -11.4963210917 0)
(0.0148934167232 -11.4906871604 0)
(0.0112378629027 -11.4864258093 0)
(0.00844667715187 -11.4832162008 0)
(0.00632886994633 -11.4808076918 0)
(0.00473263451659 -11.4790056274 0)
(0.00353833269247 -11.4776596722 0)
(0.00265251434877 -11.4766543032 0)
(0.00200293364793 -11.4759011287 0)
(0.00153481250246 -11.475332754 0)
(0.00120939893886 -11.4748977508 0)
(0.00100560610663 -11.4745555446 0)
(0.000906542061285 -11.4742681817 0)
(0.000834708993453 -11.4740021064 0)
(0.000332412204776 -11.47375014 0)
(-8.06083039862e-05 -11.4738536363 0)
(-4.11481675868e-05 -11.4739026269 0)
(-2590.03418915 -11.4739144073 0)
(2578.62540969 -14.9460628446 0)
(0.531914379079 -14.7549733551 0)
(0.776263310125 -14.4282373618 0)
(0.907238830298 -14.0383297106 0)
(0.941440278293 -13.6421595677 0)
(0.907811638871 -13.2730274043 0)
(0.833440600674 -12.9459502129 0)
(0.739284031002 -12.6648937038 0)
(0.63949099237 -12.4281032242 0)
(0.542719555227 -12.2312949814 0)
(0.453727356196 -12.0693557121 0)
(0.374709739894 -11.9371780855 0)
(0.306273949893 -11.8300365398 0)
(0.24810071252 -11.7437308356 0)
(0.199374010245 -11.6746161332 0)
(0.159050741362 -11.6195797508 0)
(0.126024091606 -11.5759946633 0)
(0.0992181636848 -11.5416647155 0)
(0.0776390255699 -11.5147689884 0)
(0.0603986503633 -11.4938089416 0)
(0.046722378038 -11.4775600056 0)
(0.035946691955 -11.4650282709 0)
(0.0275116155957 -11.4554123761 0)
(0.0209504339558 -11.4480704086 0)
(0.0158784164861 -11.4424914762 0)
(0.0119815592394 -11.4382715332 0)
(0.00900594053182 -11.4350930182 0)
(0.00674801367381 -11.4327078543 0)
(0.00504598970681 -11.4309233818 0)
(0.00377235491337 -11.4295908127 0)
(0.002827493022 -11.4285958282 0)
(0.00213436505626 -11.4278509895 0)
(0.00163450725931 -11.4272896898 0)
(0.00128648351448 -11.4268612251 0)
(0.00106784741779 -11.4265258505 0)
(0.000960990994328 -11.4262466165 0)
(0.0008854889007 -11.4259911314 0)
(0.000346659868299 -11.4257501792 0)
(-9.60596574344e-05 -11.4258545007 0)
(-4.73011368471e-05 -11.4259055831 0)
(-2587.74409366 -11.4259161074 0)
(2575.65042212 -15.0066763839 0)
(0.585725575545 -14.7981168718 0)
(0.850322976559 -14.4455078854 0)
(0.987951381161 -14.0307830489 0)
(1.0195294206 -13.6153964649 0)
(0.978459588256 -13.2332436927 0)
(0.894867653003 -12.8981900436 0)
(0.791397702281 -12.6127159798 0)
(0.682999090016 -12.373805531 0)
(0.578635554551 -12.1762604891 0)
(0.483121838491 -12.0143585038 0)
(0.398596200176 -11.882609016 0)
(0.325562839404 -11.7760568503 0)
(0.263586492177 -11.6903714732 0)
(0.211737491901 -11.6218395917 0)
(0.168868044186 -11.5673172351 0)
(0.133778029637 -11.52416751 0)
(0.105310065905 -11.4901960267 0)
(0.0824000521126 -11.4635893398 0)
(0.0641001889869 -11.4428586203 0)
(0.0495853637145 -11.4267893097 0)
(0.0381498225856 -11.4143968054 0)
(0.0291985028814 -11.4048879036 0)
(0.0222357613821 -11.3976275737 0)
(0.0168531918018 -11.3921105753 0)
(0.0127175545081 -11.3879374146 0)
(0.0095594129462 -11.3847941415 0)
(0.00716279721454 -11.3824355143 0)
(0.00535604283118 -11.3806710831 0)
(0.00400384341946 -11.379353777 0)
(0.00300047897988 -11.3783706174 0)
(0.00226416133727 -11.3776352262 0)
(0.00173276539963 -11.3770818718 0)
(0.00136216679004 -11.3766606506 0)
(0.00112852781674 -11.3763327315 0)
(0.001013485883 -11.376062319 0)
(0.000933996455618 -11.3758183642 0)
(0.000359738349481 -11.3755896595 0)
(-0.000111689080214 -11.3756931821 0)
(-5.34695178864e-05 -11.3757455883 0)
(-2585.46382481 -11.3757541579 0)
(2572.66445103 -15.0749985445 0)
(0.644148078784 -14.8463609944 0)
(0.929730074707 -14.4645488231 0)
(1.0732611144 -14.0224765785 0)
(1.10094814954 -13.5864308501 0)
(1.05125292312 -13.1906077892 0)
(0.957546143238 -12.8473808842 0)
(0.84416093352 -12.5575132001 0)
(0.726782090517 -12.3165976619 0)
(0.614608960666 -12.1184571547 0)
(0.512457650818 -11.9567311609 0)
(0.4223700706 -11.8255343641 0)
(0.344721458454 -11.7196786265 0)
(0.278944164239 -11.634703355 0)
(0.223984857858 -11.5668284574 0)
(0.178585157698 -11.5128807615 0)
(0.141448333287 -11.4702155929 0)
(0.111333797734 -11.4366422381 0)
(0.0871065068496 -11.4103563989 0)
(0.0677586563664 -11.3898803891 0)
(0.0524147410302 -11.3740108647 0)
(0.040326973191 -11.3617735323 0)
(0.0308654619374 -11.352384173 0)
(0.0235058995988 -11.3452153168 0)
(0.0178164482999 -11.3397679285 0)
(0.0134448460109 -11.3356475146 0)
(0.0101063205843 -11.3325440993 0)
(0.00757262535647 -11.3302155675 0)
(0.00566233716346 -11.328473912 0)
(0.00423244804527 -11.3271739656 0)
(0.0031712031862 -11.3262042375 0)
(0.00239211418071 -11.3254795288 0)
(0.00182942238536 -11.3249350782 0)
(0.00143631156595 -11.3245218635 0)
(0.00118751372786 -11.3242020552 0)
(0.00106386446687 -11.3239411639 0)
(0.000980020808321 -11.3237096508 0)
(0.000371696277357 -11.3234943277 0)
(-0.000127245405834 -11.3235953327 0)
(-5.94962889572e-05 -11.3236481467 0)
(-2583.19379371 -11.3236540173 0)
(2569.66615022 -15.1519382205 0)
(0.707815519831 -14.9001787382 0)
(1.01509985974 -14.4853990365 0)
(1.16357497576 -14.0132617671 0)
(1.18590317845 -13.5551110623 0)
(1.12626958144 -13.1450370035 0)
(1.02148657083 -12.7935186407 0)
(0.897554346743 -12.4993470279 0)
(0.770810299084 -12.2565904339 0)
(0.650608854738 -12.0580309368 0)
(0.541706396614 -11.8966444776 0)
(0.446006707067 -11.7661425977 0)
(0.363729041228 -11.6611031353 0)
(0.294156525992 -11.5769372306 0)
(0.236102010613 -11.5098006769 0)
(0.18819061708 -11.4564938621 0)
(0.149025734315 -11.4143668609 0)
(0.117281904721 -11.3812348395 0)
(0.0917524219109 -11.3553045216 0)
(0.0713692958218 -11.3351109345 0)
(0.055206735076 -11.3194632559 0)
(0.0424751609157 -11.3073985817 0)
(0.032510145979 -11.2981425673 0)
(0.0247590102942 -11.2910760315 0)
(0.0187667522403 -11.2857067398 0)
(0.0141623203394 -11.2816456833 0)
(0.0106458023648 -11.2785872525 0)
(0.00797683468811 -11.2762927751 0)
(0.00596436321155 -11.274576941 0)
(0.00445777831114 -11.2732966901 0)
(0.00333936634562 -11.2723421814 0)
(0.00251799320482 -11.2716295244 0)
(0.00192429845545 -11.2710950318 0)
(0.00150877137822 -11.2706906494 0)
(0.00124466773152 -11.2703796401 0)
(0.00111196677038 -11.2701289751 0)
(0.00102336370386 -11.2699107854 0)
(0.000382601960615 -11.2697098843 0)
(-0.000142452893702 -11.2698065507 0)
(-6.52064369605e-05 -11.2698587176 0)
(-2580.93436437 -11.2698611228 0)
(2566.65402764 -15.2385314723 0)
(0.777455915583 -14.9600777094 0)
(1.10711346894 -14.508061892 0)
(1.25931870924 -14.0029464468 0)
(1.27459310225 -13.5212590988 0)
(1.20357140745 -13.0964395219 0)
(1.08668413835 -12.7366014116 0)
(0.951546574877 -12.4382877704 0)
(0.815045308749 -12.1939068404 0)
(0.686598151932 -11.99514197 0)
(0.570835318636 -11.834284663 0)
(0.469478339066 -11.704638459 0)
(0.382562531875 -11.6005485761 0)
(0.309204655908 -11.5173013199 0)
(0.248073531561 -11.4509921211 0)
(0.197671920909 -11.3983983813 0)
(0.156500137797 -11.3568679061 0)
(0.123146265595 -11.3242242464 0)
(0.0963312878452 -11.2986872267 0)
(0.0749269094906 -11.2788063053 0)
(0.0579572115904 -11.2634045952 0)
(0.0445911109234 -11.2515317451 0)
(0.0341299719925 -11.2424242395 0)
(0.0259930650885 -11.2354719696 0)
(0.0197025179335 -11.2301901419 0)
(0.0148687434766 -11.2261957543 0)
(0.0111769022245 -11.2231879884 0)
(0.00837468764644 -11.2209319585 0)
(0.00626155416288 -11.2192453286 0)
(0.0046793999733 -11.2179873674 0)
(0.0035046363313 -11.2170500618 0)
(0.0026415441055 -11.2163509708 0)
(0.00201719738202 -11.2158275937 0)
(0.00157938989204 -11.2154329367 0)
(0.00129984858333 -11.215131449 0)
(0.00115763542373 -11.2148917189 0)
(0.00106383897529 -11.2146877028 0)
(0.000392543207151 -11.2145021777 0)
(-0.000157012068522 -11.2145925803 0)
(-7.04106989478e-05 -11.2146429231 0)
(-2578.68584974 -11.2146410992 0)
(2563.62642838 -15.3359623151 0)
(0.853909435883 -15.0265987992 0)
(1.20652611227 -14.532492602 0)
(1.3609355344 -13.9912861514 0)
(1.36720456343 -13.4846674905 0)
(1.28320111889 -13.0447140479 0)
(1.15311692112 -12.6766300142 0)
(1.00609326098 -12.374415002 0)
(0.859439459164 -12.1286825354 0)
(0.722533290203 -11.9299648872 0)
(0.599807098805 -11.769853535 0)