/*--------------------------------*- C++ -*----------------------------------*\
| =========                 |                                                 |
| \\      /  F ield         | OpenFOAM: The Open Source CFD Toolbox           |
|  \\    /   O peration     | Version:  2112                                  |
|   \\  /    A nd           | Website:  www.openfoam.com                      |
|    \\/     M anipulation  |                                                 |
\*---------------------------------------------------------------------------*/
FoamFile
{
    version     2.0;
    format      ascii;
    arch        "LSB;label=32;scalar=64";
    class       volScalarField;
    location    "0.6";
    object      gradTy;
}
// * * * * * * * * * * * * * * * * * * * * * * * * * * * * * * * * * * * * * //

dimensions      [0 -1 0 1 0 0 0];

internalField   nonuniform List<scalar> 
1681
(
-14.5924491194
-14.4982278031
-14.3239168433
-14.0929766344
-13.8315435463
-13.5620954599
-13.3017662025
-13.0616027495
-12.8474962595
-12.6615222768
-12.5032307065
-12.3706720542
-12.2611342251
-12.1716316261
-12.0992074392
-12.0411052596
-11.9948542935
-11.9582999932
-11.9296019456
-11.9072134019
-11.8898516605
-11.8764650306
-11.8661998082
-11.8583692111
-11.8524252766
-11.8479341284
-11.8445546613
-11.8420204764
-11.8401247843
-11.8387079375
-11.8376472339
-11.836848634
-11.8362400005
-11.8357653184
-11.8353792716
-11.8350434177
-11.8347345563
-11.8344863775
-11.834443507
-11.8344044902
-11.8344437094
-14.5947333044
-14.4998909434
-14.3245772456
-14.0925013838
-13.8300223541
-13.5597445005
-13.2988202583
-13.0582660624
-12.8439241101
-12.6578223196
-12.4994721261
-12.3668961947
-12.2573637453
-12.1678773914
-12.0954733045
-12.0373912022
-11.9911583669
-11.9546194885
-11.9259340401
-11.9035554903
-11.8862014974
-11.8728207657
-11.8625599654
-11.8547326424
-11.8487911073
-11.8443017042
-11.8409235015
-11.8383902341
-11.836495215
-11.835078874
-11.8340185679
-11.8332203036
-11.8326119889
-11.8321376672
-11.8317520462
-11.831416298
-11.8311057346
-11.8308525768
-11.8308193776
-11.8307866118
-11.8308184395
-14.599331109
-14.5032467485
-14.325908461
-14.0915514645
-13.8269777884
-13.5550397416
-13.2929269595
-13.0515934732
-12.8367827895
-12.65042721
-12.4919611638
-12.3593516875
-12.2498307164
-12.1603773589
-12.0880138295
-12.0299721369
-11.9837757493
-11.9472678529
-11.9186077074
-11.8962492262
-11.8789107936
-11.8655419084
-11.8552899923
-11.8474692491
-11.8415325382
-11.8370466459
-11.8336709881
-11.8311395684
-11.8292459048
-11.827830583
-11.8267710781
-11.8259734898
-11.8253658125
-11.8248921958
-11.8245074028
-11.8241720479
-11.823859215
-11.8235985517
-11.823580518
-11.8235580757
-11.8235806302
-14.6063035954
-14.5083465368
-14.3279329704
-14.0901305671
-13.8224062019
-13.5479763316
-13.2840844289
-13.0415875824
-12.8260793185
-12.6393476467
-12.4807113253
-12.3480540825
-12.2385521432
-12.1491495607
-12.0768477754
-12.0188673495
-11.9727261106
-11.9362650434
-11.9076431241
-11.8853149567
-11.8680000305
-11.8546490471
-11.8444105629
-11.8365997744
-11.8306703678
-11.8261897958
-11.8228179984
-11.8202893842
-11.8183977806
-11.8169840082
-11.815925721
-11.8151291591
-11.8145224423
-11.8140498619
-11.8136662766
-11.8133317739
-11.8130172124
-11.8127490427
-11.8127474318
-11.8127362327
-11.8127522835
-14.615744736
-14.515260416
-14.3306859597
-14.0882461836
-13.8163029309
-13.5385479709
-13.2722910506
-13.0282536534
-12.8118256856
-12.6246012012
-12.4657444466
-12.3330283302
-12.2235552022
-12.1342227564
-12.0620050344
-12.0041075545
-11.9580407735
-11.9216428429
-11.8930724275
-11.8707850972
-11.8535018445
-11.840174995
-11.829954633
-11.8221572887
-11.8162377587
-11.8117643908
-11.8083978285
-11.8058730246
-11.803984222
-11.8025725575
-11.8015159265
-11.8007207575
-11.8001153353
-11.7996441267
-11.7992621289
-11.7989289891
-11.7986135665
-11.7983387277
-11.7983533372
-11.7983525371
-11.7983647149
-14.627780871
-14.524079857
-14.3342128719
-14.0859070472
-13.8086598965
-13.5267446574
-13.2575432837
-13.011597432
-12.794036622
-12.6062100228
-12.4470883203
-12.3143063315
-12.2048747234
-12.115633854
-12.043523999
-11.9857322205
-11.939760003
-11.9034421175
-11.8749369476
-11.8527013416
-11.835458219
-11.8221619678
-11.8119646053
-11.8041843455
-11.7982773865
-11.793813204
-11.7904533296
-11.7879334023
-11.7860481903
-11.7846392299
-11.783584722
-11.7827913342
-11.782187556
-11.781718065
-11.7813380412
-11.781006798
-11.7806915104
-11.7804112859
-11.7804411963
-11.7804492586
-11.7804594382
-14.6425719278
-14.5349191809
-14.3385689017
-14.0831223092
-13.7994650891
-13.5125524813
-13.2398357184
-12.9916253645
-12.772729907
-12.584201185
-12.4247770619
-12.2919273157
-12.1825535776
-12.0934283069
-12.0214519683
-11.9637899864
-11.9179334298
-11.8817132492
-11.8532876465
-11.831115108
-11.8139209346
-11.8006620376
-11.7904927869
-11.7827334422
-11.7768419011
-11.7723890085
-11.7690373728
-11.7665234664
-11.7646426955
-11.7632370827
-11.7621852011
-11.7613940094
-11.7607922446
-11.7603248306
-11.7599471785
-11.7596183835
-11.7593042852
-11.7590202351
-11.7590641589
-11.7590795533
-11.7590889823
-14.6603133763
-14.5479167653
-14.343818776
-14.079900897
-13.7887022904
-13.4959537681
-13.2191615672
-12.9683453093
-12.7479272014
-12.5586075839
-12.3988520454
-12.2659388031
-12.1566436615
-12.0676611208
-11.9958461753
-11.9383397071
-11.8926211148
-11.8565172144
-11.8281862101
-11.8060886411
-11.7889526823
-11.7757382536
-11.7656025163
-11.7578681505
-11.7519950631
-11.7475557159
-11.7442139903
-11.7417073447
-11.7398319404
-11.7384303767
-11.7373816686
-11.7365931212
-11.7359937629
-11.7355288031
-11.7351539347
-11.7348281562
-11.7345163273
-11.7342301759
-11.7342866641
-11.7343081621
-11.7343176378
-14.6812386425
-14.5632361091
-14.350036313
-14.0762505853
-13.7763505537
-13.4769270746
-13.1955130736
-12.9417671938
-12.719654834
-12.5294687876
-12.3693627855
-12.2363975083
-12.1272068202
-12.038397794
-11.9667747454
-11.9094514298
-11.8638945402
-11.8279265903
-11.7997060674
-11.7776960428
-11.7606281014
-11.747465688
-11.7373692154
-11.7296641749
-11.723812804
-11.7193894404
-11.7160594421
-11.7135614121
-11.7116923904
-11.7102956472
-11.7092507132
-11.7084652978
-11.7078687682
-11.7074066604
-11.7070350046
-11.7067128284
-11.7064043564
-11.7061179078
-11.7061854671
-11.7062121908
-11.7062221875
-14.7056219885
-14.5810668476
-14.3573036683
-14.0721767147
-13.7623833991
-13.455447007
-13.1688818026
-12.9119035792
-12.6879445011
-12.496831794
-12.336367722
-12.20337014
-12.0943156605
-12.0057151448
-11.9343175392
-11.8772072518
-11.8318374827
-11.7960264409
-11.7679332875
-11.7460241791
-11.7290346963
-11.7159323597
-11.7058813185
-11.6982102854
-11.6923841647
-11.6879794395
-11.6846631583
-11.6821752358
-11.6803137193
-11.678922651
-11.6778821546
-11.677100406
-11.6765071612
-11.676048328
-11.6756803325
-11.6753623613
-11.6750583307
-11.6747734058
-11.6748505545
-11.6748819122
-11.6748926581
-14.7337819392
-14.6016257839
-14.3657102339
-14.0676805441
-13.7467677482
-13.4314839003
-13.1392588601
-12.8787701792
-12.6528339224
-12.4607517419
-12.2999349503
-12.1669341425
-12.0580543018
-11.9697020752
-11.8985669288
-11.8417021109
-11.796546817
-11.7609151336
-11.7329674086
-11.7111735191
-11.6942736832
-11.6812400877
-11.6712411322
-11.6636091823
-11.6578121623
-11.6534289847
-11.6501286129
-11.6476524492
-11.645799686
-11.6444152433
-11.6433799218
-11.6426024293
-11.6420129652
-11.6415578571
-11.64119399
-11.6408808433
-11.6405823281
-11.6403007182
-11.640386004
-11.6404215887
-11.6404331117
-14.7660853626
-14.625157969
-14.375351153
-14.0627572174
-13.7294626226
-13.4050033979
-13.1066350825
-12.8423863723
-12.6143674943
-12.4212926136
-12.2601429401
-12.1271784197
-12.0185191074
-11.930460311
-11.8596285511
-11.8030445519
-11.7581332961
-11.7227051319
-11.6949222415
-11.6732589483
-11.6564608122
-11.6435053206
-11.6335656704
-11.625978336
-11.6202146347
-11.6158562077
-11.6125741715
-11.6101116029
-11.6082689853
-11.6068922307
-11.605862906
-11.6050903222
-11.6045051802
-11.6040542797
-11.6036950314
-11.603387344
-11.6030954026
-11.6028188366
-11.6029108309
-11.6029503208
-11.602962477
-14.8029523296
-14.6519378377
-14.3863253792
-14.0573933068
-13.7104176182
-13.3759659632
-13.0710012283
-12.8027757353
-12.5725969614
-12.3785279507
-12.2170812589
-12.0842040607
-11.975819414
-11.8881051399
-11.8176220566
-11.7613574889
-11.7167223269
-11.6815237835
-11.6539266694
-11.6324105786
-11.6157271855
-11.6028599621
-11.592987485
-11.5854508222
-11.579725079
-11.5753949432
-11.5721339368
-11.5696870109
-11.5678560963
-11.5664882198
-11.5654658107
-11.5646988602
-11.5641186337
-11.563672459
-11.5633183435
-11.5630167647
-11.5627324363
-11.5624625583
-11.5625598391
-11.5626029137
-11.5626154084
-14.844861904
-14.6822703862
-14.3987331862
-14.0515638789
-13.6895711553
-13.3443263384
-13.032348186
-12.7599666089
-12.5275821154
-12.3325415857
-12.1708513057
-12.0381250694
-11.9300782617
-11.842766148
-11.7726818565
-11.7167789641
-11.6724547418
-11.6375141048
-11.6101254433
-11.5887745534
-11.5722200716
-11.5594521916
-11.5496554932
-11.5421761539
-11.5364934872
-11.5321955661
-11.5289585881
-11.5265295921
-11.5247121252
-11.5233544611
-11.5223399963
-11.521579485
-11.5210048258
-11.5205639354
-11.5202154917
-11.5199206839
-11.5196449856
-11.5193833421
-11.5194844705
-11.5195307474
-11.5195431541
-14.8923590447
-14.7164923541
-14.4126729965
-14.0452290158
-13.666848502
-13.3100329689
-12.9906672137
-12.713992698
-12.479391516
-12.2834283845
-12.1215670432
-11.9890690865
-11.8814331131
-11.7945879419
-11.7249578533
-11.6694628899
-11.6254875526
-11.5908355462
-11.5636799588
-11.5425138342
-11.526103699
-11.5134472651
-11.5037357835
-11.4963210917
-11.4906871604
-11.4864258093
-11.4832162008
-11.4808076918
-11.4790056274
-11.4776596722
-11.4766543032
-11.4759011287
-11.475332754
-11.4748977508
-11.4745555446
-11.4742681817
-11.4740021064
-11.47375014
-11.4738536363
-11.4739026269
-11.4739144073
-14.9460628446
-14.7549733551
-14.4282373618
-14.0383297106
-13.6421595677
-13.2730274043
-12.9459502129
-12.6648937038
-12.4281032242
-12.2312949814
-12.0693557121
-11.9371780855
-11.8300365398
-11.7437308356
-11.6746161332
-11.6195797508
-11.5759946633
-11.5416647155
-11.5147689884
-11.4938089416
-11.4775600056
-11.4650282709
-11.4554123761
-11.4480704086
-11.4424914762
-11.4382715332
-11.4350930182
-11.4327078543
-11.4309233818
-11.4295908127
-11.4285958282
-11.4278509895
-11.4272896898
-11.4268612251
-11.4265258505
-11.4262466165
-11.4259911314
-11.4257501792
-11.4258545007
-11.4259055831
-11.4259161074
-15.0066763839
-14.7981168718
-14.4455078854
-14.0307830489
-13.6153964649
-13.2332436927
-12.8981900436
-12.6127159798
-12.373805531
-12.1762604891
-12.0143585038
-11.882609016
-11.7760568503
-11.6903714732
-11.6218395917
-11.5673172351
-11.52416751
-11.4901960267
-11.4635893398
-11.4428586203
-11.4267893097
-11.4143968054
-11.4048879036
-11.3976275737
-11.3921105753
-11.3879374146
-11.3847941415
-11.3824355143
-11.3806710831
-11.379353777
-11.3783706174
-11.3776352262
-11.3770818718
-11.3766606506
-11.3763327315
-11.376062319
-11.3758183642
-11.3755896595
-11.3756931821
-11.3757455883
-11.3757541579
-15.0749985445
-14.8463609944
-14.4645488231
-14.0224765785
-13.5864308501
-13.1906077892
-12.8473808842
-12.5575132001
-12.3165976619
-12.1184571547
-11.9567311609
-11.8255343641
-11.7196786265
-11.634703355
-11.5668284574
-11.5128807615
-11.4702155929
-11.4366422381
-11.4103563989
-11.3898803891
-11.3740108647
-11.3617735323
-11.352384173
-11.3452153168
-11.3397679285
-11.3356475146
-11.3325440993
-11.3302155675
-11.328473912
-11.3271739656
-11.3262042375
-11.3254795288
-11.3249350782
-11.3245218635
-11.3242020552
-11.3239411639
-11.3237096508
-11.3234943277
-11.3235953327
-11.3236481467
-11.3236540173
-15.1519382205
-14.9001787382
-14.4853990365
-14.0132617671
-13.5551110623
-13.1450370035
-12.7935186407
-12.4993470279
-12.2565904339
-12.0580309368
-11.8966444776
-11.7661425977
-11.6611031353
-11.5769372306
-11.5098006769
-11.4564938621
-11.4143668609
-11.3812348395
-11.3553045216
-11.3351109345
-11.3194632559
-11.3073985817
-11.2981425673
-11.2910760315
-11.2857067398
-11.2816456833
-11.2785872525
-11.2762927751
-11.274576941
-11.2732966901
-11.2723421814
-11.2716295244
-11.2710950318
-11.2706906494
-11.2703796401
-11.2701289751
-11.2699107854
-11.2697098843
-11.2698065507
-11.2698587176
-11.2698611228
-15.2385314723
-14.9600777094
-14.508061892
-14.0029464468
-13.5212590988
-13.0964395219
-12.7366014116
-12.4382877704
-12.1939068404
-11.99514197
-11.834284663
-11.704638459
-11.6005485761
-11.5173013199
-11.4509921211
-11.3983983813
-11.3568679061
-11.3242242464
-11.2986872267
-11.2788063053
-11.2634045952
-11.2515317451
-11.2424242395
-11.2354719696
-11.2301901419
-11.2261957543
-11.2231879884
-11.2209319585
-11.2192453286
-11.2179873674
-11.2170500618
-11.2163509708
-11.2158275937
-11.2154329367
-11.215131449
-11.2148917189
-11.2146877028
-11.2145021777
-11.2145925803
-11.2146429231
-11.2146410992
-15.3359623151
-15.0265987992
-14.532492602
-13.9912861514
-13.4846674905
-13.0447140479
-12.6766300142
-12.374415002
-12.1286825354
-11.9299648872
-11.769853535
-11.6412430694
-11.5382501278
-11.4560413228
-11.3906565714
-11.3388544473
-11.2979839266
-11.2658797556
-11.2407771482
-11.2212418602
-11.2061124665
-11.1944524184
-11.1855100553
-11.1786851817
-11.1735011345
-11.1695814824
-11.1666306577
-11.1644179347
-11.1627642532
-11.1615314538
-11.1606135449
-11.1599296896
-11.159418696
-11.1590347292
-11.1587435212
-11.1585154362
-11.1583264106
-11.158157137
-11.1582392508
-11.1582864953
-11.1582797058
-15.4455880187
-15.1003134697
-14.5585823837
-13.977974272
-13.4450961709
-12.9897496165
-12.6136085825
-12.3078181424
-12.0610661914
-11.8626889645
-11.7035685062
-11.5761938073
-11.4744597537
-11.3934201766
-11.329065445
-11.2781401741
-11.2379984126
-11.2064892191
-11.1818656989
-11.1627119254
-11.1478835769
-11.1364592488
-11.1277002346
-11.1210171553
-11.11594222
-11.1121061765
-11.1092192052
-11.1070551456
-11.105438542
-11.1042340714
-11.103337976
-11.1026711914
-11.1021739669
-11.1018017312
-11.1015215972
-11.1013058662
-11.1011326125
-11.1009803966
-11.1010521065
-11.1010949133
-11.1010824724
-15.5689700303
-15.1818190256
-14.58613866
-13.9626309891
-13.4022694742
-12.9314256493
-12.5475452447
-12.2385969684
-11.9912197001
-11.7935180568
-11.6356623301
-11.5097439238
-11.4094457297
-11.329717523
-11.2665072179
-11.2165510536
-11.1772125134
-11.1463583935
-11.1222624056
-11.1035291167
-11.0890330692
-11.0778694382
-11.0693136487
-11.0627881066
-11.0578346903
-11.0540919823
-11.0512764492
-11.049166935
-11.0475919454
-11.0464192821
-11.045547652
-11.044899947
-11.0444180007
-11.0440586164
-11.0437903877
-11.0435877157
-11.0434309767
-11.0432965651
-11.0433556817
-11.0433926836
-11.0433739798
-15.7079119421
-15.2717310431
-14.6148603411
-13.9447909947
-13.3558734467
-12.8696123303
-12.478452892
-12.1668620455
-11.919318189
-11.7226702928
-11.5663825718
-11.4421618614
-11.3434918579
-11.2652288466
-11.2032865096
-11.1543989984
-11.1159440484
-11.0858099237
-11.0622938714
-11.0440232849
-11.0298934525
-11.0190176625
-11.0106867296
-11.0043358813
-10.9995175211
-10.9958787719
-10.9931429669
-10.9910944301
-10.9895660155
-10.988428963
-10.9875846956
-10.9869582606
-10.9864932307
-10.986147901
-10.9858924459
-10.9857035294
-10.9855640058
-10.9854480974
-10.9854923765
-10.9855222212
-10.9854967407
-15.8645063193
-15.3706718123
-14.6443069964
-13.9238901116
-13.3055537221
-12.8041713941
-12.4063500505
-12.0927350595
-11.8455498283
-11.6503775001
-11.495990775
-11.3737302459
-11.2768963355
-11.2002642557
-11.1397227956
-11.0920110015
-11.054526125
-11.0251819276
-11.0023023324
-10.9845400492
-10.9708131171
-10.9602545705
-10.9521719557
-10.9460144299
-10.9413458383
-10.9378226026
-10.9351755474
-10.93319499
-10.9317185519
-10.93062125
-10.9298074959
-10.9292047086
-10.9287583664
-10.9284283797
-10.9281866028
-10.9280121255
-10.9278904708
-10.92779373
-10.927820896
-10.9278422928
-10.9278096419
-16.0411927224
-15.4792532274
-14.6738604425
-13.8992510467
-13.2509142829
-12.7349574274
-12.3312618662
-12.0163490313
-11.7701154025
-11.5768843364
-11.4247613005
-11.304744526
-11.209970254
-11.1351468764
-11.0761487221
-11.0297273878
-10.9933053378
-10.9648261527
-10.9426437792
-10.9254388898
-10.9121544023
-10.9019448319
-10.8941358838
-10.8881918262
-10.883688926
-10.8802937158
-10.8777451837
-10.8758401925
-10.8744215827
-10.873368515
-10.8725886839
-10.872012113
-10.8715863658
-10.8712730973
-10.8710459387
-10.8708865653
-10.8707833794
-10.8707064517
-10.8707142236
-10.870725991
-10.8706859201
-16.2408299278
-15.5980519676
-14.7026769263
-13.8700687235
-13.1915175231
-12.6618197917
-12.2532212126
-11.9378484021
-11.6932276286
-11.5024471067
-11.3529798181
-11.2355112444
-11.1430357116
-11.0702108458
-11.0129080045
-10.9678996367
-10.9326395301
-10.9051056862
-10.8836856248
-10.8670907806
-10.8542912004
-10.844464717
-10.8369567086
-10.8312478105
-10.8269277559
-10.8236740567
-10.8212345835
-10.8194133377
-10.8180588642
-10.8170548614
-10.816312624
-10.8157650311
-10.8153619229
-10.8150668353
-10.8148552688
-10.8147116379
-10.8146274583
-10.8145709886
-10.8145571066
-10.8145582196
-10.8145106502
-16.4667862314
-15.7275740114
-14.7296276588
-13.8353959297
-13.1268861239
-12.5846052712
-12.1722699268
-11.8573889712
-11.6151102045
-11.4273322567
-11.2809414439
-11.1663459315
-11.0764235308
-11.0057988948
-10.9503529039
-10.9068877717
-10.8728951111
-10.8463922127
-10.8258039121
-10.8098753545
-10.7976060875
-10.7881991991
-10.781021342
-10.77557085
-10.7714520328
-10.7683543065
-10.7660351921
-10.7643064632
-10.7630228889
-10.7620731279
-10.7613724146
-10.7608567525
-10.7604784638
-10.7602031066
-10.7600081374
-10.7598808524
-10.7598161429
-10.7597807976
-10.759743049
-10.7597326815
-10.7596777378
-16.723052872
-15.8682044146
-14.7532249407
-13.7941304394
-13.0565073677
-12.5031615383
-12.0884601737
-11.7751376791
-11.5359965811
-11.3518145381
-11.2089485215
-11.0975706253
-11.0104705865
-10.9422595274
-10.8888412866
-10.8470573213
-10.8144439347
-10.7890628245
-10.7693800671
-10.7541776101
-10.7424869904
-10.7335385889
-10.7267220203
-10.7215547241
-10.7176567624
-10.7147304367
-10.7125437349
-10.710916878
-10.7097114131
-10.7088214098
-10.708166405
-10.7076858137
-10.7073346578
-10.707080666
-10.7069033278
-10.7067929467
-10.706748082
-10.7067345747
-10.7066708189
-10.7066483757
-10.7065864274
-17.0143871295
-16.0201367626
-14.7715305034
-13.7450053733
-12.9798406204
-12.4173414998
-12.0018559314
-11.6912722236
-11.4561284563
-11.2761748547
-11.1373080637
-11.0295110344
-10.9455167621
-10.8799438152
-10.8287332867
-10.7887758725
-10.7576597629
-10.7334964083
-10.7147972222
-10.7003841807
-10.6893234113
-10.6808747226
-10.6744524632
-10.6695946594
-10.6659383658
-10.6631998077
-10.661158304
-10.6596432388
-10.6585235252
-10.6576991223
-10.6570942544
-10.6566520529
-10.6563304708
-10.6560995616
-10.6559409136
-10.6558479369
-10.6558231818
-10.6558323042
-10.6557404941
-10.655705627
-10.6556373487
-17.3464936569
-16.1832746068
-14.7820419541
-13.6865854069
-12.8963288129
-12.3270085303
-11.9125345794
-11.6059805072
-11.3757539988
-11.2006978079
-11.0663288769
-10.9624933723
-10.8819015665
-10.8192018412
-10.7703876087
-10.7324092559
-10.7029143506
-10.6800696474
-10.6624361477
-10.6488792079
-10.6385022538
-10.6305967478
-10.6246036265
-10.6200830551
-10.6166903849
-10.6141568568
-10.6122740323
-10.6108812139
-10.6098553014
-10.609102649
-10.6085525752
-10.6081522502
-10.6078628026
-10.6076567709
-10.6075178945
-10.6074427513
-10.6074382335
-10.6074708917
-10.6073490929
-10.6073016903
-10.6072281459
-17.7262552559
-16.3570943057
-14.7815523544
-13.6172726286
-12.8054148043
-12.2320425191
-11.8205885618
-11.519459911
-11.2951258187
-11.1256689733
-10.99631841
-10.8968409084
-10.8199604596
-10.7603788447
-10.7141575225
-10.6783174149
-10.6505732096
-10.629152696
-10.6126708519
-10.6000398793
-10.5904033073
-10.5830865659
-10.5775591093
-10.5734048632
-10.5702988384
-10.5679884364
-10.5662784174
-10.5650187953
-10.5640951088
-10.5634206384
-10.5629302247
-10.5625754149
-10.5623207709
-10.5621414838
-10.56202348
-10.5619665128
-10.561982186
-10.5620394417
-10.5618858519
-10.5618259904
-10.5617487545
-18.1620278361
-16.5404547029
-14.765976974
-13.535327505
-12.7065634942
-12.1323465287
-11.7261270862
-11.4319164
-11.2144987118
-11.0513719529
-10.927579381
-10.832870295
-10.76002095
-10.7038111332
-10.6603866204
-10.6268500317
-10.6009911241
-10.5811046016
-10.5658639249
-10.5542317065
-10.5453944722
-10.5387140114
-10.5336902974
-10.5299327005
-10.5271373109
-10.5250688839
-10.5235463765
-10.522431342
-10.5216186397
-10.5210290312
-10.5206033263
-10.520297803
-10.5200807263
-10.5199301155
-10.5198341032
-10.519795552
-10.5198311474
-10.5199142649
-10.5197272352
-10.5196550784
-10.5195764057
-18.6640189897
-16.7313335705
-14.730140162
-13.4389127078
-12.5992903842
-12.0278536891
-11.6292778156
-11.3435634657
-11.1341272107
-10.9780852581
-10.8604062469
-10.7708877433
-10.7023985427
-10.649821843
-10.609404421
-10.5783419983
-10.5545075091
-10.5362685678
-10.5223617207
-10.5118036403
-10.5038268183
-10.4978318656
-10.4933513391
-10.4900217956
-10.4875618749
-10.4857549242
-10.4844351331
-10.4834764548
-10.4827837768
-10.4822859184
-10.4819301223
-10.4816777653
-10.4815010971
-10.4813811506
-10.4813082662
-10.4812882524
-10.481343215
-10.4814537106
-10.48123178
-10.481147404
-10.4810704667
-19.2447758929
-16.9264631382
-14.6675141072
-13.3261707271
-12.4831968904
-11.9185337207
-11.5301885102
-11.2546209163
-11.0542629879
-10.9060790926
-10.7950815962
-10.711185134
-10.6473926286
-10.5987166453
-10.5615219195
-10.5331088352
-10.5114417156
-10.4949671644
-10.4824894879
-10.473083134
-10.466029593
-10.4607708179
-10.4568740693
-10.4540048817
-10.4519059597
-10.4503805193
-10.449279052
-10.4484887991
-10.4479254066
-10.4475263471
-10.4472457747
-10.4470505446
-10.4469171833
-10.4468299346
-10.4467813354
-10.4467798476
-10.4468532531
-10.4469929434
-10.4467348982
-10.4466380198
-10.4465672234
-19.9198166572
-17.120826512
-14.5699000966
-13.195350558
-12.3580119132
-11.8043981851
-11.4290286052
-11.1653135291
-10.9751521562
-10.83561211
-10.7318725521
-10.6540361585
-10.5952824165
-10.5507795032
-10.5170271951
-10.4914421699
-10.4720884009
-10.457497605
-10.4465465682
-10.4383712772
-10.4323053005
-10.4278345013
-10.4245630084
-10.4221871668
-10.4204752979
-10.4192517958
-10.4183845516
-10.4177750055
-10.417350312
-10.4170572065
-10.4168572454
-10.4167231512
-10.416636029
-10.4165835452
-10.4165604167
-10.4165772997
-10.4166677474
-10.4168387888
-10.4165437689
-10.4164333494
-10.4163747426
-20.7084505549
-17.3069622131
-14.4270418844
-13.0450047215
-12.2236377642
-11.6855032173
-11.3259907605
-11.0758695761
-10.8970325219
-10.7669282323
-10.6710272805
-10.5996925916
-10.5463230168
-10.5062685928
-10.4761811931
-10.4536053996
-10.4367130879
-10.4241272188
-10.4148017955
-10.4079381323
-10.4029249875
-10.3992947359
-10.3966905718
-10.3948415149
-10.3935430844
-10.3926421872
-10.3920252324
-10.391608788
-10.3913322806
-10.3911523298
-10.3910383934
-10.390969457
-10.3909315133
-10.3909158815
-10.3909194497
-10.3909544019
-10.3910598785
-10.3912647847
-10.390932467
-10.3908061611
-10.3907679431
-21.6348477761
-17.4740038806
-14.2261602151
-12.8742860517
-12.0801961853
-11.5619481201
-11.2212925252
-10.9865192334
-10.8201308398
-10.7002536161
-10.6127716999
-10.5483808023
-10.500741787
-10.4654125055
-10.4392138015
-10.4198296593
-10.405548041
-10.395089247
-10.3874892245
-10.3820184084
-10.3781238708
-10.375387118
-10.3734926279
-10.3722039798
-10.3713454901
-10.3707879307
-10.3704373613
-10.3702264184
-10.370107573
-10.3700479567
-10.3700254331
-10.3700256498
-10.3700398019
-10.370063112
-10.3700946647
-10.3701472463
-10.3702649557
-10.3705065705
-10.3701374752
-10.3699908964
-10.3699840063
-22.7294399449
-17.6063541603
-13.9513978366
-12.6833848106
-11.9280663748
-11.4338678572
-11.1151784384
-10.897492863
-10.744660121
-10.6357938561
-10.557306489
-10.500298603
-10.4587350467
-10.4284068429
-10.4063203398
-10.3903102178
-10.3787885807
-10.3705790901
-10.3648043211
-10.3608076021
-10.3580974375
-10.3563070879
-10.3551645394
-10.3544698239
-10.3540776641
-10.3538840561
-10.3538158503
-10.3538226966
-10.3538708858
-10.3539386918
-10.3540128886
-10.3540861855
-10.3541552957
-10.3542196216
-10.3542805382
-10.3543501986
-10.354476354
-10.3547577459
-10.3543537225
-10.3541795098
-10.3542182462
-24.0307604863
-17.6818528807
-13.5831661932
-12.4741618123
-11.7679009239
-11.3014172949
-11.0079231635
-10.8090191255
-10.6708170354
-10.5737315153
-10.5048044807
-10.4556125324
-10.4204652642
-10.3954113098
-10.3776585674
-10.365203412
-10.3565899547
-10.3507511222
-10.3469007289
-10.3444587255
-10.3429981415
-10.3422065992
-10.3418578105
-10.3417901489
-10.3418903495
-10.3420809913
-10.3423108531
-10.3425475405
-10.3427719373
-10.3429740859
-10.3431501729
-10.3433003645
-10.3434272054
-10.34353458
-10.3436263743
-10.3437125066
-10.3438420816
-10.3441663091
-10.3437312782
-10.343517976
-10.3436205316
-25.5878717489
-17.6692449959
-13.0973887057
-12.2510540821
-11.6005959459
-11.164744662
-10.8998360545
-10.7213221433
-10.5987787005
-10.5142232354
-10.4554076003
-10.4144546461
-10.3860576997
-10.3665462113
-10.3533450436
-10.3446228813
-10.3390634589
-10.3357147142
-10.3338862068
-10.3330781697
-10.3329312027
-10.333189866
-10.3336757904
-10.3342675624
-10.3348855214
-10.3354801756
-10.3360233591
-10.3365015656
-10.3369110342
-10.337254194
-10.3375371378
-10.3377678761
-10.3379550898
-10.3381074749
-10.33823186
-10.3383339021
-10.3384601496
-10.3388296205
-10.3383702979
-10.3381138682
-10.3382907809
)
;

boundaryField
{
    inout
    {
        type            empty;
    }
    top
    {
        type            calculated;
        value           nonuniform List<scalar> 
41
(
-26.4372522454
-17.6363472543
-12.8217981419
-12.1367779281
-11.5152839286
-11.0953699213
-10.8456255441
-10.6776954575
-10.5632315171
-10.4851254617
-10.4315011344
-10.3947719774
-10.3698326741
-10.3531587098
-10.3422871957
-10.3354755723
-10.3314792546
-10.3294051001
-10.3286116526
-10.3286401906
-10.3291658537
-10.3299623092
-10.3308756923
-10.3318051605
-10.3326882505
-10.3334897696
-10.3341933593
-10.3347951886
-10.3352993631
-10.3357146584
-10.3360522425
-10.3363241434
-10.3365421849
-10.3367175547
-10.3368586934
-10.3369685636
-10.3370912022
-10.3374837549
-10.3370143499
-10.3367377884
-10.3369520854
)
;
    }
    bottom
    {
        type            calculated;
        value           nonuniform List<scalar> 
41
(
-14.5918799124
-14.4978140501
-14.3237524556
-14.093095494
-13.8319238149
-13.562683128
-13.3025027111
-13.0624370867
-12.8483896064
-12.6624476968
-12.5041708758
-12.3716166126
-12.2620774888
-12.1725708649
-12.1001416796
-12.0420345004
-11.9957790164
-11.9592208719
-11.9305196834
-11.9081286482
-11.8907649752
-11.8773768753
-11.8671105509
-11.8592791382
-11.8533346061
-11.8488430234
-11.8454632416
-11.8429288285
-11.8410329692
-11.8396159966
-11.8385551941
-11.8377565107
-11.8371477977
-11.8366730246
-11.8362868704
-11.8359510023
-11.8356426327
-11.8353958209
-11.8353502996
-11.8353096679
-11.8353510132
)
;
    }
    frontback
    {
        type            empty;
    }
}


// ************************************************************************* //
