/*--------------------------------*- C++ -*----------------------------------*\
| =========                 |                                                 |
| \\      /  F ield         | OpenFOAM: The Open Source CFD Toolbox           |
|  \\    /   O peration     | Version:  2112                                  |
|   \\  /    A nd           | Website:  www.openfoam.com                      |
|    \\/     M anipulation  |                                                 |
\*---------------------------------------------------------------------------*/
FoamFile
{
    version     2.0;
    format      ascii;
    arch        "LSB;label=32;scalar=64";
    class       volScalarField;
    location    "0.6";
    object      gradTx;
}
// * * * * * * * * * * * * * * * * * * * * * * * * * * * * * * * * * * * * * //

dimensions      [0 -1 0 1 0 0 0];

internalField   nonuniform List<scalar> 
1681
(
2622.54551531
0.0134063728378
0.0202359278042
0.0245914320349
0.0265206183005
0.0264710551898
0.0250123020656
0.0227056552338
0.0199994694947
0.0172109365321
0.0145415542102
0.0121046693477
0.00995228738257
0.00809679046114
0.00652681822565
0.00521813316158
0.00414068142398
0.00326296664728
0.00255461118524
0.0019877354098
0.00153758864745
0.00118272121735
0.000904886854345
0.000688797237804
0.000521805737778
0.000393568223801
0.000295709746194
0.000221513624247
0.00016564159488
0.000123888751346
9.29742935878e-05
7.03698232043e-05
5.41743076889e-05
4.30463614851e-05
3.61011165828e-05
3.22118889557e-05
2.7759067173e-05
1.4616651177e-05
4.30765281107e-06
-3.5677768518e-08
-2622.81646701
2619.63634932
0.0403000823735
0.0608143059318
0.0738832273739
0.0796556165961
0.0794844135696
0.0750862400128
0.0681483333718
0.06001662505
0.0516421740665
0.0436284903038
0.0363146269315
0.0298557982543
0.024288566725
0.0195784550653
0.0156524959734
0.012420371863
0.00978750292416
0.00766270706761
0.00596232162004
0.00461208561094
0.0035476492412
0.00271427704185
0.00206610907463
0.00156521080931
0.00118055484791
0.000887020661109
0.000664461759055
0.000496866167241
0.000371621332931
0.000278886413555
0.000211076852178
0.000162488810737
0.000129099428513
0.000108279028696
9.67311739967e-05
8.36489721902e-05
4.35932090899e-05
1.20698161497e-05
-4.80978945568e-09
-2620.44976344
2616.72659046
0.0674375845868
0.101713839719
0.123502410336
0.13307199496
0.13271147435
0.125307989687
0.113684884876
0.100088218061
0.0861013333361
0.0727267791799
0.0605263455128
0.0497560480514
0.040474878608
0.0326240560747
0.0260811206855
0.0206950241473
0.0163078320015
0.0127674108276
0.0099342439617
0.00768453357206
0.00591102761108
0.00452251151789
0.00344256886956
0.00260799336734
0.00196708937459
0.00147800376869
0.00110717092803
0.000827913623196
0.000619218169168
0.00046468837158
0.00035168563133
0.000270701577745
0.000215034886
0.000180374966486
0.000161474209802
0.000140503299342
7.18880631439e-05
1.75006574443e-05
1.51946198293e-07
-2618.084146
2613.81583375
0.0949846119583
0.143153362726
0.173669361899
0.18695796117
0.186294579362
0.175775493698
0.159377167371
0.140249877688
0.120606499203
0.101843594818
0.0847407164078
0.0696506639706
0.056651944109
0.0456594994633
0.0365001120051
0.028961228663
0.0228211113001
0.0178664323941
0.0139017043919
0.0107535491896
0.00827180950533
0.00632880888348
0.00481759987816
0.00364973145415
0.00275286488281
0.00206843617216
0.00154947840866
0.00115866323612
0.000866586680745
0.000650305066857
0.000492129959427
0.000378747609736
0.000300781384005
0.000252308609899
0.000226368718888
0.000198348204982
9.93326183856e-05
2.01650184028e-05
-2.7240294465e-08
-2615.7203357
2610.90366043
0.12311170959
0.185357033656
0.22460776404
0.241502842064
0.240375828934
0.226585739523
0.205285906967
0.180536205192
0.155174931976
0.130985492033
0.108958181935
0.0895369524092
0.0728157521611
0.0586804983028
0.0469054536535
0.0372154853808
0.0293244292979
0.0229574281588
0.0178628626694
0.0138177155041
0.0106289211355
0.00813236604428
0.00619060789635
0.00468998909709
0.00353756325467
0.00265808607898
0.0019912144758
0.00148898882466
0.00111363008849
0.000835658203899
0.000632341379282
0.000486561014174
0.00038626801752
0.000323992553728
0.000291287064915
0.000257049540184
0.000125844174508
2.00626631273e-05
-8.18383100421e-07
-2613.3590483
2607.98963272
0.151996367206
0.228556209205
0.276545967669
0.296897603713
0.295096955408
0.277834357192
0.251470240384
0.220980368133
0.189822747006
0.160158169023
0.13317856528
0.109411778733
0.088961977661
0.0716825398309
0.0572929641824
0.0454541709972
0.0358147805174
0.028037981526
0.0218158209766
0.016875569621
0.0129812518049
0.00993235015631
0.00756097473814
0.00572831103208
0.00432085092586
0.00324670941215
0.00243219971441
0.00181875664701
0.0013602457881
0.00102066507488
0.00077224819976
0.000594073758224
0.000471422647143
0.000395336144283
0.000356081201456
0.000316400478012
0.000151378486739
1.740313286e-05
-2.30279214696e-06
-2611.00099225
2605.07328828
0.181825309412
0.272991595618
0.329718359115
0.353335320023
0.350599151494
0.329615184588
0.297987239307
0.261613687044
0.224564592328
0.189366230291
0.157400901305
0.129271447914
0.105085897043
0.0846608249891
0.0676582528628
0.0536735059935
0.0422890403754
0.0331055833253
0.0257586083946
0.0199255902722
0.0153276438764
0.0117278904984
0.00892805165614
0.00676421740322
0.00510237462893
0.00383404641541
0.00287224233524
0.00214782330215
0.0016063237432
0.00120523735462
0.000911774571774
0.000701214840264
0.000556170984711
0.000466245957627
0.000420593226664
0.00037615197398
0.000175906990114
1.2468116808e-05
-4.46675807869e-06
-2608.64686656
2602.15413449
0.212796972416
0.318915583534
0.384366730187
0.411011569291
0.407022829564
0.382019780559
0.344891402648
0.302465204036
0.259413316041
0.218612942874
0.181623262136
0.149111580498
0.121182299518
0.0976102039405
0.0779966718791
0.061869518435
0.0487439371806
0.0381576097661
0.029689163347
0.0229661836903
0.0176668813562
0.0135180692498
0.0102911518902
0.00779719775746
0.00588175659384
0.00441981783301
0.00331113516907
0.0024760333846
0.00185174468228
0.00138927973961
0.00105083949395
0.000807909513617
0.000640435865608
0.000536625582906
0.000484659866306
0.00043603013878
0.000199403739514
5.53949864109e-06
-7.26746570653e-06
-2606.29735854
2599.23164226
0.245124229472
0.366594769282
0.440741656237
0.470124745806
0.464507296125
0.435136876339
0.392234112471
0.343561232124
0.294379623533
0.247899986454
0.205842578087
0.168926984374
0.137245394278
0.110525107741
0.0883032649624
0.0700380045327
0.0551760213018
0.0431912979781
0.0336053139644
0.0259956677714
0.0199976770743
0.0153019111113
0.0116495423005
0.00882670433206
0.00665858918159
0.00500372066046
0.00374865231865
0.00280321689149
0.00209637810936
0.00157268845531
0.00118935570642
0.000914078467642
0.000724136632831
0.000606375329609
0.000548114706814
0.000495748044984
0.000221839631004
-3.12912300812e-06
-1.06615123365e-05
-2603.9531414
2596.30523954
0.27903743831
0.416312688301
0.499103882059
0.53087627143
0.523190325575
0.489051756706
0.440063050576
0.384924885276
0.329471725728
0.277227198735
0.230054455202
0.188711523367
0.15326871448
0.123399476774
0.0985727129087
0.0781744863276
0.0615816317504
0.0482037192826
0.0375047565489
0.0290122546366
0.0223186585614
0.0170783718786
0.0130024341518
0.00985214465822
0.00743242899052
0.00558542347935
0.00418454551095
0.00312918637173
0.00234008011949
0.00175534961261
0.00132722849473
0.00101963699343
0.000807188572643
0.000675391982783
0.000610789502921
0.000555014268792
0.000243181611159
-1.33171077273e-05
-1.46115550997e-05
-2601.61487167
2593.37430449
0.314787893519
0.468372795872
0.559725710062
0.593470687329
0.583207615424
0.543845561895
0.488421572786
0.426575589172
0.364694979351
0.306592317258
0.254252990386
0.208457983406
0.169245018537
0.136226686344
0.108799276261
0.0862741667074
0.0679568603371
0.0531917503442
0.0413850322036
0.0320140316542
0.0246283526415
0.0188463259752
0.0143489730622
0.0108728735104
0.00820279044642
0.00616456139509
0.00461854011613
0.00345373386106
0.00258269105569
0.00193713744479
0.00146435439428
0.00112449407413
0.000889502375091
0.000743568664762
0.000672515057973
0.000613539143743
0.000263394864433
-2.4830395105e-05
-1.90822275236e-05
-2599.28318649
2590.438158
0.352651779358
0.52310173627
0.622892379205
0.6581156002
0.644692103205
0.599594500918
0.537348038104
0.468528572739
0.400051520153
0.335990718611
0.278430584901
0.228157936819
0.185166189074
0.148999469636
0.118976735281
0.0943318817894
0.0742975134214
0.0581520421858
0.0452435016304
0.0349989409237
0.0269251687568
0.020604552943
0.0156882281281
0.0118881841908
0.00896913888207
0.00674073056976
0.00505033088519
0.00377662756208
0.00282403296838
0.00211791240513
0.00160061981156
0.00122855144363
0.000970983599921
0.000810794744135
0.000733121901815
0.000671039270444
0.000282446421815
-3.74911920198e-05
-2.40330860968e-05
-2596.95870073
2587.49605582
0.392934735432
0.580852946192
0.68890341614
0.725021451229
0.70777312344
0.656368967021
0.586875090438
0.510794340902
0.435539890195
0.365415156043
0.302577756918
0.247801605143
0.201023129802
0.161709838162
0.129098327256
0.102342050717
0.0805990712564
0.0630809870584
0.0490773180738
0.0379647571926
0.0292073809994
0.0223517228993
0.0170191802047
0.0128972991628
0.00973088307903
0.00731348235636
0.00547957736107
0.00409760830733
0.00306390691413
0.00229751913663
0.00173589954772
0.00133170258539
0.00105153213087
0.000876955801459
0.00079244082873
0.000727240624044
0.000300309198242
-5.11272418631e-05
-2.94114448463e-05
-2594.64200393
2584.54717997
0.435977169445
0.642010642467
0.758073931395
0.794401068921
0.772575381202
0.714232546484
0.637028891471
0.553378129666
0.47115466065
0.394855496603
0.32668295389
0.267377720978
0.21680566055
0.174348999844
0.139156681219
0.110298622865
0.086856644923
0.0679746831741
0.0528833984105
0.0409090642138
0.0314731088548
0.0240863809237
0.0183407093419
0.0138993600028
0.0104873673178
0.0078823170329
0.00590589899046
0.00441638578079
0.00330209007059
0.00247578431181
0.00187005522548
0.00143383168097
0.00113104162795
0.000941933606232
0.000850303347282
0.000781880563128
0.000316965861199
-6.55622856037e-05
-3.51469523009e-05
-2592.33365706
2581.59062936
0.482160478993
0.706994247663
0.830735822327
0.866468959324
0.839217717302
0.773240912916
0.687828304549
0.596279345539
0.506886052136
0.424298459312
0.350732365716
0.286873389419
0.232502410838
0.18690727495
0.149143750211
0.118195022575
0.0930649309403
0.0728288973293
0.0566583924242
0.0438292295669
0.0337202966722
0.0258069304334
0.0196515814103
0.0148934167232
0.0112378629027
0.00844667715187
0.00632886994633
0.00473263451659
0.00353833269247
0.00265251434877
0.00200293364793
0.00153481250246
0.00120939893886
0.00100560610663
0.000906542061285
0.000834708993453
0.000332412204776
-8.06083039862e-05
-4.11481675868e-05
-2590.03418915
2578.62540969
0.531914379079
0.776263310125
0.907238830298
0.941440278293
0.907811638871
0.833440600674
0.739284031002
0.63949099237
0.542719555227
0.453727356196
0.374709739894
0.306273949893
0.24810071252
0.199374010245
0.159050741362
0.126024091606
0.0992181636848
0.0776390255699
0.0603986503633
0.046722378038
0.035946691955
0.0275116155957
0.0209504339558
0.0158784164861
0.0119815592394
0.00900594053182
0.00674801367381
0.00504598970681
0.00377235491337
0.002827493022
0.00213436505626
0.00163450725931
0.00128648351448
0.00106784741779
0.000960990994328
0.0008854889007
0.000346659868299
-9.60596574344e-05
-4.73011368471e-05
-2587.74409366
2575.65042212
0.585725575545
0.850322976559
0.987951381161
1.0195294206
0.978459588256
0.894867653003
0.791397702281
0.682999090016
0.578635554551
0.483121838491
0.398596200176
0.325562839404
0.263586492177
0.211737491901
0.168868044186
0.133778029637
0.105310065905
0.0824000521126
0.0641001889869
0.0495853637145
0.0381498225856
0.0291985028814
0.0222357613821
0.0168531918018
0.0127175545081
0.0095594129462
0.00716279721454
0.00535604283118
0.00400384341946
0.00300047897988
0.00226416133727
0.00173276539963
0.00136216679004
0.00112852781674
0.001013485883
0.000933996455618
0.000359738349481
-0.000111689080214
-5.34695178864e-05
-2585.46382481
2572.66445103
0.644148078784
0.929730074707
1.0732611144
1.10094814954
1.05125292312
0.957546143238
0.84416093352
0.726782090517
0.614608960666
0.512457650818
0.4223700706
0.344721458454
0.278944164239
0.223984857858
0.178585157698
0.141448333287
0.111333797734
0.0871065068496
0.0677586563664
0.0524147410302
0.040326973191
0.0308654619374
0.0235058995988
0.0178164482999
0.0134448460109
0.0101063205843
0.00757262535647
0.00566233716346
0.00423244804527
0.0031712031862
0.00239211418071
0.00182942238536
0.00143631156595
0.00118751372786
0.00106386446687
0.000980020808321
0.000371696277357
-0.000127245405834
-5.94962889572e-05
-2583.19379371
2569.66615022
0.707815519831
1.01509985974
1.16357497576
1.18590317845
1.12626958144
1.02148657083
0.897554346743
0.770810299084
0.650608854738
0.541706396614
0.446006707067
0.363729041228
0.294156525992
0.236102010613
0.18819061708
0.149025734315
0.117281904721
0.0917524219109
0.0713692958218
0.055206735076
0.0424751609157
0.032510145979
0.0247590102942
0.0187667522403
0.0141623203394
0.0106458023648
0.00797683468811
0.00596436321155
0.00445777831114
0.00333936634562
0.00251799320482
0.00192429845545
0.00150877137822
0.00124466773152
0.00111196677038
0.00102336370386
0.000382601960615
-0.000142452893702
-6.52064369605e-05
-2580.93436437
2566.65402764
0.777455915583
1.10711346894
1.25931870924
1.27459310225
1.20357140745
1.08668413835
0.951546574877
0.815045308749
0.686598151932
0.570835318636
0.469478339066
0.382562531875
0.309204655908
0.248073531561
0.197671920909
0.156500137797
0.123146265595
0.0963312878452
0.0749269094906
0.0579572115904
0.0445911109234
0.0341299719925
0.0259930650885
0.0197025179335
0.0148687434766
0.0111769022245
0.00837468764644
0.00626155416288
0.0046793999733
0.0035046363313
0.0026415441055
0.00201719738202
0.00157938989204
0.00129984858333
0.00115763542373
0.00106383897529
0.000392543207151
-0.000157012068522
-7.04106989478e-05
-2578.68584974
2563.62642838
0.853909435883
1.20652611227
1.3609355344
1.36720456343
1.28320111889
1.15311692112
1.00609326098
0.859439459164
0.722533290203
0.599807098805
0.492753924447
0.401196469059
0.324067817009
0.259882598323
0.207015460082
0.163860561287
0.128918040583
0.10083601014
0.0784258221261
0.0606616471191
0.0466712320629
0.0357221010796
0.0272058298098
0.0206219952936
0.0155627510357
0.0116985615314
0.0087653666619
0.0065532814227
0.00489683165639
0.00366664567307
0.00276248683443
0.00210790528133
0.00164800031292
0.0013529112799
0.00120071602152
0.00110127195009
0.000401626447524
-0.00017060197224
-7.49102051039e-05
-2576.44850757
2560.58151542
0.938149858209
1.31417599851
1.46888373155
1.46390752295
1.3651789027
1.22074394751
1.06113607064
0.903935331718
0.758363952022
0.62857968219
0.515799020506
0.419602881212
0.338723367187
0.271510906659
0.216206449857
0.171095076128
0.134587621291
0.105258866937
0.0818598458273
0.0633150999374
0.0487115931624
0.0372834193449
0.0283948492464
0.0215232577837
0.0162428388287
0.0122096117729
0.00914796855495
0.00683885034081
0.00510954163343
0.00382498916702
0.00288051387816
0.0021961894538
0.00171442485343
0.00140370719194
0.00124105755384
0.00113549880858
0.000409975161797
-0.000182883730415
-7.85017024337e-05
-2574.2225365
2557.51724808
1.03131056288
1.4309939518
1.58363277696
1.56484949454
1.44949863657
1.28950321595
1.1166017392
0.948465294741
0.794032827256
0.657106130241
0.538575674951
0.437751195197
0.353146678749
0.282938598837
0.225228866562
0.178190752276
0.140144583316
0.109591468891
0.0852222465189
0.0659121824248
0.0507079005272
0.0388105197815
0.0295574327222
0.0224041910622
0.0169073540063
0.0127087677113
0.00952149929707
0.00711749625137
0.00531694485476
0.00397922167496
0.00299528865791
0.00228179733508
0.001778474264
0.00145208426411
0.00127851295132
0.00116636588553
0.000417727648839
-0.000193505323671
-8.09833884432e-05
-2572.00807209
2554.43135761
1.13471613227
1.55801360582
1.70565756871
1.67014859091
1.5361237486
1.3593096837
1.17240117956
0.992951114039
0.829475426012
0.685334508792
0.561042340591
0.455608161367
0.367311069551
0.294144200533
0.23406539076
0.185133608159
0.145577642848
0.113824722295
0.0885057131034
0.0684470356329
0.0526554772656
0.0402996856646
0.0306906409236
0.0232624826413
0.0175544870424
0.0131946212305
0.00988486932572
0.00738838093488
0.00551840030891
0.00412885617615
0.00310644413319
0.00236445557117
0.00183994745398
0.00149788733586
0.00131293975088
0.001193728927
0.00042503416878
-0.000202107424572
-8.2161315433e-05
-2569.80518316
2551.32131949
1.24992088307
1.69638196147
1.83543015585
1.77988522742
1.62498274751
1.4300532729
1.22842867981
1.0373036453
0.864619950682
0.713207816518
0.583153817742
0.473137798141
0.381187748409
0.30510456849
0.242697358809
0.19190856722
0.150874618712
0.117948796649
0.0917023302865
0.0709133068952
0.0545492451199
0.041746876025
0.0317912744256
0.0240956129401
0.0181822648299
0.0136656360767
0.0102368895782
0.00765058966322
0.00571320883791
0.00427336216185
0.00321358163804
0.00244386925174
0.00189863123237
0.00154095859066
0.00134420095884
0.00121745228151
0.000432053523497
-0.00020833008017
-8.18562301104e-05
-2567.6138683
2548.18432198
1.37875599683
1.84736994596
1.97340822359
1.89409233441
1.71596448291
1.50159695063
1.28456122401
1.08142262591
0.899387236659
0.740663959639
0.604861228504
0.490301359402
0.394745777519
0.315794851362
0.251104724893
0.198499422948
0.156022401363
0.121953097974
0.0948035561607
0.0733041313755
0.0563837095476
0.0431477137786
0.032855864398
0.0249008481104
0.0187885452156
0.014120143738
0.0105762684376
0.00790312895044
0.00590061149878
0.00441216445597
0.00331627004197
0.00251972134881
0.00195430017374
0.00158113817169
0.00137216614001
0.00123740802219
0.000438949132683
-0.000211819978073
-7.99104989506e-05
-2565.43405278
2545.0172303
1.52338733905
2.0123823976
2.12001938777
2.01274395127
1.80891323084
1.57377495212
1.34065797254
1.12519658429
0.933690771095
0.767635778589
0.626112027034
0.507057328064
0.407952054796
0.326188466211
0.259266035672
0.204888814245
0.161006930428
0.125826249216
0.0978002056566
0.0756121184793
0.0581529488186
0.0444974771612
0.0338806659965
0.0256752350303
0.0193710132832
0.0145563407321
0.010901609777
0.00814492517468
0.00607978859975
0.00454464254565
0.00341404526861
0.00259167240755
0.00200671664439
0.00161826497412
0.00139671281646
0.00125347500886
0.00044588468632
-0.000212237939287
-7.61955334308e-05
-2563.26558592
2541.8165456
1.68638659714
2.19296659477
2.27564010424
2.13574212076
1.903623745
1.64639122855
1.39655994082
1.16850288498
0.967436798752
0.794051132092
0.646850049804
0.523361439132
0.420771318959
0.33625709318
0.267158419766
0.211058213043
0.16581318242
0.129556079109
0.100682441037
0.0778293440878
0.0598506079033
0.045791095073
0.034861654949
0.0264155988852
0.0199271796922
0.0149722875329
0.0112114123075
0.0083748242133
0.00624985952871
0.0046701305074
0.00350641025802
0.00265936051495
0.00205563099351
0.00165217764889
0.00141772824795
0.00126553787389
0.000453019478598
-0.000209266175459
-7.06192309073e-05
-2561.108239
2538.57835825
1.87081905357
2.39081801394
2.44056769475
2.26290208297
1.99983647028
1.71921821211
1.452089917
1.21120792719
1.00052452322
0.819833043638
0.667015609639
0.539166735395
0.433166180182
0.345970690823
0.274757594244
0.216987926049
0.170425170228
0.133129620863
0.103439770558
0.0799473495492
0.0614698979261
0.0470231469915
0.0357945278343
0.027118543722
0.0204543814228
0.0153659093891
0.0115040704143
0.00859159224421
0.006409883474
0.00478791761997
0.00359283542926
0.00272240159399
0.0021007819155
0.00168271581913
0.00143511171608
0.00127348596358
0.000460503459463
-0.000202614726347
-6.31332792242e-05
-2558.96170383
2535.29829415
2.08035218339
2.60778138981
2.61498361885
2.39393590098
2.0972331838
1.79199600041
1.50705265933
1.25316751317
1.03284641067
0.84489991466
0.68654563681
0.554423658695
0.44509717893
0.355297534414
0.282037890157
0.222657112403
0.17482595594
0.136533121981
0.106061056379
0.0819571483331
0.063003601918
0.0481878680209
0.036674706539
0.0277804563699
0.0209497851841
0.0157349992718
0.0117778766672
0.00879391784869
0.00655886115082
0.00489724973783
0.0036727597049
0.00278039005737
0.00214189699133
0.00170972150784
0.00144877740446
0.00127721227616
0.000468472100744
-0.000192026387318
-5.37409380454e-05
-2556.82559204
2531.97145347
2.3193903788
2.8458442918
2.79890567134
2.52843485767
2.19543340809
1.86443206735
1.56123541201
1.29422740098
1.06428860174
0.869165807695
0.705373869968
0.569080179242
0.456522875255
0.364204279362
0.288972299014
0.228043818893
0.178997678363
0.139752066385
0.108534532731
0.0838492411667
0.0644440875452
0.0492791596316
0.037497347319
0.0283975140578
0.0214103937896
0.0160772231624
0.0120310261653
0.00898041554169
0.00669573763944
0.00499733150965
0.00374559214053
0.0028328998538
0.00217869337286
0.0017330407649
0.00145865806126
0.00127661248573
0.000477041011252
-0.000177279281327
-4.25041993739e-05
-2554.69943524
2528.59234049
2.59324252395
3.1071192298
2.99212624708
2.6658512763
2.2939920305
1.93620160503
1.61440877545
1.33422405304
1.09473143505
0.892540801765
0.723431098881
0.583081964935
0.467399970496
0.372656051455
0.295532541776
0.233125034116
0.182921596506
0.142771209872
0.110847835175
0.085613640357
0.0657833273775
0.0502906065541
0.0382573548447
0.0289656960364
0.0218330557099
0.0163901278483
0.0122616228445
0.00914963083999
0.0068194063878
0.00508732949147
0.00381071422978
0.00287948592034
0.0022108786136
0.0017525254266
0.00146470959874
0.00127158420177
0.000486300218779
-0.000158186111783
-2.95515401367e-05
-2552.58268608
2525.15478356
2.90833095909
3.39380862722
3.19413318135
2.80548087957
2.3923986566
2.00694858897
1.66632796062
1.37298558852
1.12405008348
0.914931420668
0.740645460031
0.596372591989
0.477683462687
0.380616565314
0.301689161596
0.237876762681
0.186578149891
0.145574629714
0.112988041651
0.0872399038483
0.0670129271556
0.0512155001845
0.0389494015021
0.0294807994125
0.022214477984
0.0166711513757
0.0124676878792
0.00930004692915
0.00692871446248
0.00516637620061
0.00386748289856
0.002919686085
0.00223815155424
0.00176803494804
0.00146691685651
0.00126202670818
0.000496307841994
-0.000134589006265
-1.50847131918e-05
-2550.47472029
2521.65184399
3.27245269637
3.70814466938
3.40400894304
2.94644747156
2.49007931208
2.07628763076
1.71673445035
1.41033294247
1.15211530121
0.936241133338
0.756942785066
0.608893797302
0.487326836419
0.388048271756
0.307411641033
0.242274120126
0.189947036362
0.148145788901
0.114941725713
0.0887171793665
0.0681241623316
0.0520468687316
0.0395679521474
0.0299384593558
0.022551242596
0.016917636225
0.0126471701963
0.00943009299745
0.00702246907114
0.00523357514247
0.00391523423281
0.00295302341418
0.00226020323766
0.00177943813461
0.00146530075115
0.00124784161817
0.000507082665051
-0.000106348808975
6.14348890423e-07
-2548.37483978
2518.07571304
3.69510672463
4.05229279976
3.62030313692
3.0876926833
2.58640117031
2.14380663366
1.76535808159
1.44608123003
1.17879427626
0.956370923634
0.772247000854
0.620585772054
0.496282287031
0.394912534243
0.312668543974
0.246291448784
0.193007307571
0.150467615219
0.11669502213
0.0900342587902
0.069108022999
0.0527775141781
0.0401072943482
0.0303341736961
0.0228398263455
0.0171268452428
0.0127979591454
0.00953815422139
0.0070994453588
0.00528800681143
0.00395328793446
0.00297900903454
0.00227671774018
0.00178661458093
0.00145992707944
0.00122893507081
0.000518594848357
-7.33276806015e-05
1.71779570035e-05
-2546.28227672
2514.41759618
4.18790505351
4.4282031516
3.84087238642
3.22797487284
2.68068098812
2.20907019164
1.81191955481
1.48004130723
1.20395157955
0.975219925041
0.786480578584
0.631387495049
0.504500978242
0.401169833783
0.317427681813
0.249902454278
0.195737481897
0.15252259498
0.118233704686
0.091179642597
0.0699552670766
0.0534000559615
0.0405615740579
0.0306633318483
0.0230766241464
0.0172959802666
0.0129178992682
0.00962258338314
0.00715839545231
0.00532873564437
0.0039809525193
0.00299714542688
0.00228737280926
0.00178945552895
0.00145091721575
0.00120522246535
0.000530753642978
-3.53640945452e-05
3.41493203724e-05
-2544.19619873
2510.66758441
4.76509003676
4.83738799056
4.06268077361
3.36588315789
2.7721978319
2.27162356486
1.85613337139
1.51202151386
1.22745019708
0.992686113925
0.799565027984
0.641237103118
0.511933331315
0.406780000897
0.321656302814
0.253080361764
0.198115674092
0.154292880777
0.119543275687
0.0921416139735
0.0706564814135
0.0539069810823
0.0409248364491
0.0309212478827
0.0232579755948
0.0174222033093
0.0130048070714
0.00968171402435
0.00719805868299
0.0053548178753
0.00399753121575
0.00300693022401
0.00229184019898
0.00178786368168
0.00143846093162
0.00117663724727
0.000543390551842
7.76020187341e-06
5.09832090923e-05
-2542.1157151
2506.81451363
5.44418678762
5.28059464993
4.28155321046
3.49987517367
2.86021038887
2.33099691988
1.89771120253
1.541829576
1.24915262783
1.00866705318
0.811421431322
0.650072294815
0.518529342994
0.411702472421
0.325321302835
0.255798090441
0.200119740393
0.155760412266
0.120609066284
0.0929083218824
0.0712021502197
0.0542907001566
0.041191071531
0.0311031973881
0.023380194551
0.0175026601139
0.0130564896184
0.00971387501634
0.00721717289124
0.00536531022064
0.00400232853639
0.00300786052324
0.00228978554201
0.00178175144551
0.00142283146026
0.00114314590687
0.000556235933642
5.63606261088e-05
6.7054103804e-05
-2540.03988391
2502.84581408
6.24682754895
5.75733155635
4.49187357957
3.62835074421
2.94397856392
2.3867093422
1.93636570848
1.56927463733
1.26892202506
1.02306067667
0.821971010564
0.657830762487
0.52423892841
0.415896570141
0.328389454922
0.258028444223
0.201727437374
0.156907048483
0.121416346445
0.0934678720645
0.0715827299878
0.0545436087204
0.0413542639967
0.0312044577068
0.0234396013652
0.0175345057642
0.013070764734
0.00971740635661
0.00721448666108
0.00535927927192
0.00399465745688
0.00299943777318
0.0022808676419
0.00177103683259
0.0014044027173
0.00110477240183
0.000568886650775
0.000110895024511
8.16770025594e-05
-2537.96772012
2498.7473548
7.19979520929
6.26518851987
4.68621950281
3.74977856434
3.02278797615
2.43827191872
1.971814866
1.59416937738
1.28662335424
1.03576610381
0.831135719773
0.664450646819
0.529012284384
0.419321797455
0.330827654645
0.259744315975
0.202916592324
0.157714709872
0.121950442988
0.0938084247105
0.0717887298545
0.0546581529507
0.0414084465905
0.0312203509639
0.0234325573026
0.0175149320151
0.0130454825246
0.0096906759711
0.00718877232708
0.00533581147621
0.0039738471173
0.00298117331314
0.00226473704799
0.00175563603673
0.0013836682983
0.00106163645415
0.000580762226582
0.000172007845025
9.41493565778e-05
-2535.89820436
2494.50329141
8.33634640758
6.79886977002
4.85492663343
3.86289964769
3.09597411599
2.48518897608
2.0037869341
1.61633215936
1.30212453601
1.04668447326
0.838838853862
0.669871007009
0.53280026777
0.421938149702
0.332603177458
0.260918902174
0.203665282549
0.15816552784
0.122196863918
0.0939182973078
0.0718107961902
0.0546268987799
0.0413477561974
0.0311462892449
0.0233555006487
0.0174411959129
0.0129785478945
0.00963209728369
0.00713883954107
0.00529402354003
0.00393925095137
0.00295259468386
0.00224103386144
0.00173545150154
0.00136126124695
0.00101401189876
0.000591047346976
0.000240561658803
0.00010382631181
-2533.83029242
)
;

boundaryField
{
    inout
    {
        type            empty;
    }
    top
    {
        type            calculated;
        value           nonuniform List<scalar> 
41
(
2494.50329141
8.33634640758
6.79886977002
4.85492663343
3.86289964769
3.09597411599
2.48518897608
2.0037869341
1.61633215936
1.30212453601
1.04668447326
0.838838853862
0.669871007009
0.53280026777
0.421938149702
0.332603177458
0.260918902174
0.203665282549
0.15816552784
0.122196863918
0.0939182973078
0.0718107961902
0.0546268987799
0.0413477561974
0.0311462892449
0.0233555006487
0.0174411959129
0.0129785478945
0.00963209728369
0.00713883954107
0.00529402354003
0.00393925095137
0.00295259468386
0.00224103386144
0.00173545150154
0.00136126124695
0.00101401189876
0.000591047346976
0.000240561658803
0.00010382631181
-2533.83029242
)
;
    }
    bottom
    {
        type            calculated;
        value           nonuniform List<scalar> 
41
(
2622.54551531
0.0134063728378
0.0202359278042
0.0245914320349
0.0265206183005
0.0264710551898
0.0250123020656
0.0227056552338
0.0199994694947
0.0172109365321
0.0145415542102
0.0121046693477
0.00995228738257
0.00809679046114
0.00652681822565
0.00521813316158
0.00414068142398
0.00326296664728
0.00255461118524
0.0019877354098
0.00153758864745
0.00118272121735
0.000904886854345
0.000688797237804
0.000521805737778
0.000393568223801
0.000295709746194
0.000221513624247
0.00016564159488
0.000123888751346
9.29742935878e-05
7.03698232043e-05
5.41743076889e-05
4.30463614851e-05
3.61011165828e-05
3.22118889557e-05
2.7759067173e-05
1.4616651177e-05
4.30765281107e-06
-3.5677768518e-08
-2622.81646701
)
;
    }
    frontback
    {
        type            empty;
    }
}


// ************************************************************************* //
