/*--------------------------------*- C++ -*----------------------------------*\
| =========                 |                                                 |
| \\      /  F ield         | OpenFOAM: The Open Source CFD Toolbox           |
|  \\    /   O peration     | Version:  2112                                  |
|   \\  /    A nd           | Website:  www.openfoam.com                      |
|    \\/     M anipulation  |                                                 |
\*---------------------------------------------------------------------------*/
FoamFile
{
    version     2.0;
    format      ascii;
    arch        "LSB;label=32;scalar=64";
    class       volScalarField;
    location    "0.6";
    object      phiE;
}
// * * * * * * * * * * * * * * * * * * * * * * * * * * * * * * * * * * * * * //

dimensions      [1 2 -3 0 0 -1 0];

internalField   nonuniform List<scalar> 
1681
(
0.993902454771
0.993902455651
0.993902454991
0.993902455831
0.993902455326
0.993902455926
0.993902455623
0.993902456052
0.993902455867
0.993902456185
0.993902456073
0.993902456266
0.993902456218
0.993902456277
0.993902456252
0.993902456219
0.993902456168
0.993902456084
0.993902455992
0.993902455868
0.993902455752
0.993902455581
0.993902455456
0.99390245524
0.993902455095
0.993902454857
0.993902454663
0.993902454428
0.993902454175
0.99390245395
0.993902453658
0.993902453451
0.993902453152
0.993902452969
0.993902452704
0.993902452542
0.993902452316
0.9939024522
0.993902451935
0.993902451908
0.993902451519
0.981707364278
0.981707366969
0.981707364948
0.981707367496
0.981707365963
0.981707367778
0.981707366856
0.981707368157
0.981707367592
0.981707368554
0.981707368215
0.981707368795
0.981707368653
0.981707368829
0.981707368757
0.981707368656
0.981707368505
0.981707368251
0.981707367978
0.981707367603
0.981707367257
0.981707366743
0.98170736637
0.98170736572
0.981707365287
0.981707364571
0.981707363989
0.981707363283
0.981707362522
0.98170736185
0.98170736097
0.981707360352
0.981707359451
0.981707358902
0.981707358105
0.98170735762
0.981707356939
0.981707356595
0.981707355792
0.981707355722
0.981707354542
0.969512273689
0.969512278324
0.969512274841
0.969512279164
0.969512276558
0.969512279625
0.969512278058
0.969512280259
0.969512279296
0.969512280918
0.969512280348
0.969512281318
0.969512281087
0.969512281376
0.969512281262
0.969512281093
0.969512280841
0.969512280418
0.969512279965
0.969512279338
0.969512278765
0.969512277901
0.969512277287
0.969512276196
0.969512275479
0.969512274285
0.969512273311
0.969512272137
0.969512270862
0.969512269745
0.969512268268
0.969512267242
0.969512265731
0.969512264819
0.969512263482
0.969512262677
0.969512261528
0.969512260973
0.969512259603
0.969512259522
0.969512257517
0.957317182979
0.957317189682
0.957317184658
0.957317190801
0.957317187099
0.957317191439
0.957317189217
0.957317192336
0.957317190971
0.957317193263
0.957317192469
0.957317193826
0.957317193519
0.957317193917
0.957317193766
0.957317193529
0.957317193177
0.957317192586
0.957317191953
0.957317191071
0.957317190278
0.957317189056
0.957317188208
0.957317186671
0.95731718567
0.957317183997
0.957317182625
0.957317180986
0.957317179187
0.957317177626
0.957317175543
0.957317174107
0.957317171975
0.957317170697
0.957317168813
0.957317167687
0.957317166058
0.957317165305
0.95731716334
0.957317163271
0.957317160415
0.945122092134
0.945122101002
0.945122094389
0.945122102366
0.945122097579
0.945122103191
0.945122100325
0.945122104366
0.945122102614
0.945122105573
0.945122104577
0.945122106312
0.945122105946
0.945122106449
0.945122106267
0.945122105964
0.945122105513
0.945122104755
0.945122103944
0.945122102803
0.945122101795
0.945122100209
0.945122099131
0.945122097144
0.945122095856
0.945122093707
0.945122091927
0.945122089825
0.945122087492
0.945122085482
0.945122082783
0.94512208093
0.945122078168
0.945122076515
0.945122074072
0.945122072625
0.945122070497
0.945122069557
0.945122066972
0.945122066925
0.945122063204
0.932927001139
0.932927012239
0.932927004026
0.932927013822
0.932927007984
0.932927014851
0.932927011371
0.932927016329
0.932927014219
0.932927017835
0.93292701667
0.932927018768
0.932927018368
0.93292701897
0.932927018766
0.932927018399
0.932927017848
0.932927016926
0.932927015939
0.932927014535
0.932927013316
0.932927011361
0.932927010056
0.932927007617
0.932927006036
0.932927003415
0.932927001214
0.932926998648
0.932926995771
0.932926993303
0.932926989979
0.932926987694
0.93292698429
0.93292698225
0.932926979235
0.932926977461
0.932926974817
0.932926973697
0.932926970469
0.932926970444
0.932926965851
0.920731909984
0.92073192335
0.920731913557
0.920731925135
0.920731918301
0.920731926394
0.920731922346
0.920731928204
0.92073192578
0.920731930035
0.920731928744
0.92073193119
0.920731930784
0.920731931481
0.920731931262
0.920731930837
0.920731930186
0.920731929101
0.920731927939
0.920731926269
0.920731924845
0.920731922515
0.920731920982
0.920731918092
0.920731916208
0.920731913119
0.920731910485
0.920731907451
0.92073190402
0.920731901078
0.920731897121
0.920731894384
0.920731890325
0.920731887881
0.920731884276
0.920731882169
0.920731878988
0.92073187769
0.920731873799
0.920731873784
0.920731868323
0.908536818658
0.908536834293
0.908536822968
0.908536836273
0.908536828517
0.908536837794
0.908536833237
0.908536839974
0.908536837293
0.908536842165
0.908536840799
0.908536843576
0.908536843192
0.908536843985
0.908536843757
0.90853684328
0.908536842528
0.908536841282
0.908536839949
0.908536838008
0.908536836382
0.908536833673
0.90853683191
0.908536828572
0.908536826372
0.90853682282
0.908536819738
0.908536816231
0.908536812236
0.908536808799
0.908536804198
0.908536800984
0.908536796254
0.908536793386
0.90853678917
0.908536786721
0.90853678298
0.908536781501
0.908536776933
0.908536776906
0.908536770584
0.896341727149
0.89634174503
0.896341732243
0.896341747205
0.896341738614
0.89634174903
0.896341744034
0.896341751623
0.896341748751
0.896341754216
0.896341752831
0.896341755926
0.896341755595
0.896341756484
0.896341756255
0.896341755732
0.896341754881
0.896341753475
0.896341751973
0.896341749757
0.896341747932
0.89634174484
0.896341742843
0.896341739061
0.896341736531
0.896341732521
0.896341728974
0.896341724984
0.896341720414
0.896341716458
0.8963417112
0.896341707479
0.896341702057
0.896341698743
0.896341693889
0.896341691086
0.89634168676
0.896341685092
0.896341679837
0.896341679768
0.896341672598
0.884146635445
0.884146655521
0.884146641367
0.884146657904
0.884146648576
0.884146660079
0.884146654723
0.884146663137
0.884146660149
0.884146666183
0.884146664842
0.884146668242
0.884146667996
0.884146668986
0.884146668762
0.884146668201
0.88414666725
0.884146665685
0.884146664017
0.88414666152
0.884146659499
0.884146656023
0.884146653785
0.884146649564
0.884146646688
0.884146642223
0.884146638197
0.88414663371
0.884146628555
0.884146624048
0.884146618119
0.884146613857
0.884146607717
0.88414660393
0.884146598407
0.884146595233
0.884146590299
0.884146588426
0.884146582478
0.884146582328
0.884146574326
0.87195154353
0.87195156573
0.871951550318
0.871951568341
0.871951558383
0.87195157092
0.871951565292
0.871951574502
0.871951571482
0.871951578063
0.871951576831
0.871951580529
0.871951580399
0.871951581497
0.871951581285
0.871951580696
0.871951579645
0.871951577921
0.87195157609
0.871951573308
0.871951571092
0.871951567229
0.871951564741
0.871951560088
0.871951556848
0.87195155193
0.871951547408
0.871951542409
0.871951536656
0.871951531563
0.871951524944
0.871951520103
0.871951513214
0.871951508923
0.871951502694
0.871951499131
0.87195149356
0.871951491463
0.871951484817
0.871951484544
0.871951475726
0.859756451391
0.859756475622
0.859756459078
0.85975647849
0.859756468017
0.859756481536
0.85975647573
0.859756485708
0.859756482746
0.859756489856
0.859756488802
0.859756492795
0.859756492814
0.859756494032
0.859756493838
0.859756493228
0.859756492078
0.859756490195
0.859756488204
0.859756485131
0.859756482719
0.859756478469
0.859756475721
0.859756470642
0.85975646702
0.85975646165
0.859756456616
0.859756451083
0.859756444719
0.859756439001
0.859756431668
0.859756426204
0.859756418528
0.859756413698
0.859756406722
0.859756402744
0.859756396508
0.859756394161
0.859756386817
0.85975638637
0.859756376755
0.847561359011
0.847561385162
0.847561367624
0.847561388325
0.84756137746
0.847561391908
0.847561386024
0.847561396748
0.84756139394
0.847561401566
0.847561400761
0.847561405053
0.847561405254
0.847561406604
0.847561406436
0.847561405813
0.847561404567
0.847561402522
0.847561400373
0.847561397003
0.847561394394
0.847561389758
0.847561386736
0.84756138124
0.847561377214
0.847561371392
0.84756136583
0.847561359737
0.847561352747
0.84756134636
0.847561338284
0.84756133215
0.847561323639
0.847561318231
0.847561310458
0.847561306036
0.847561299106
0.847561296475
0.847561288433
0.847561287761
0.847561277367
0.835366266371
0.835366294316
0.835366275934
0.835366297822
0.835366286693
0.835366302019
0.835366296166
0.835366307614
0.835366305063
0.835366313199
0.835366312717
0.835366317318
0.835366317734
0.835366319233
0.835366319099
0.835366318472
0.835366317132
0.835366314921
0.835366312616
0.835366308943
0.835366306132
0.835366301112
0.835366297801
0.835366291895
0.835366287445
0.835366281168
0.835366275061
0.835366268381
0.835366260745
0.835366253641
0.835366244785
0.83536623793
0.835366228529
0.835366222496
0.835366213872
0.835366208968
0.835366201312
0.835366198359
0.835366189621
0.835366188667
0.835366177512
0.823171173454
0.823171203052
0.823171183985
0.823171206955
0.823171195696
0.823171211853
0.823171206144
0.823171218305
0.823171216117
0.823171224766
0.823171224684
0.823171229611
0.823171230276
0.823171231945
0.823171231853
0.82317123123
0.823171229797
0.823171227416
0.823171224956
0.823171220974
0.823171217955
0.823171212553
0.823171208936
0.823171202626
0.823171197734
0.823171190994
0.823171184327
0.823171177025
0.823171168722
0.823171160847
0.823171151166
0.823171143532
0.823171133177
0.823171126465
0.823171116929
0.823171111498
0.823171103084
0.823171099762
0.823171090332
0.823171089036
0.823171077139
0.810976080238
0.810976111336
0.810976091752
0.8109761157
0.810976104452
0.810976121396
0.810976115953
0.810976128818
0.810976127108
0.810976136283
0.810976136679
0.810976141959
0.810976142909
0.810976144769
0.81097614473
0.810976144116
0.810976142594
0.810976140037
0.810976137421
0.810976133123
0.810976129887
0.810976124105
0.810976120164
0.810976113458
0.810976108101
0.81097610089
0.810976093646
0.810976085686
0.81097607669
0.810976067987
0.810976057427
0.810976048949
0.810976037565
0.810976030112
0.810976019595
0.810976013582
0.810976004374
0.81097600063
0.81097599051
0.810975988815
0.810975976193
0.798780986704
0.798781019139
0.798780999211
0.798781024033
0.798781012943
0.798781030635
0.798781025585
0.798781039158
0.798781038044
0.79878104777
0.798781048727
0.798781054392
0.798781055665
0.798781057742
0.798781057769
0.798781057169
0.79878105556
0.798781052819
0.798781050043
0.798781045425
0.798781041959
0.798781035801
0.798781031516
0.798781024417
0.798781018577
0.798781010882
0.798781003044
0.798780994386
0.798780984662
0.79878097507
0.798780963566
0.798780954172
0.798780941675
0.798780933406
0.798780921833
0.798780915173
0.798780905133
0.798780900908
0.7987808901
0.798780887946
0.798780874616
0.786585892828
0.786585926427
0.786585906336
0.786585931931
0.786585921151
0.786585939559
0.786585935036
0.78658594933
0.786585948938
0.786585959251
0.786585960854
0.786585966949
0.786585968586
0.786585970908
0.786585971013
0.786585970432
0.786585968738
0.786585965804
0.786585962863
0.786585957917
0.786585954208
0.786585947676
0.786585943024
0.786585935537
0.786585929195
0.786585920999
0.786585912548
0.786585903148
0.786585892657
0.78658588211
0.786585869586
0.786585859196
0.786585845488
0.786585836318
0.786585823604
0.78658581622
0.786585805306
0.786585800533
0.786585789037
0.786585786368
0.786585772349
0.774390798589
0.774390833172
0.774390813101
0.77439083937
0.774390829058
0.774390848158
0.774390844304
0.774390859343
0.774390859805
0.774390870755
0.774390873097
0.774390879674
0.77439088172
0.774390884316
0.774390884516
0.774390883955
0.774390882178
0.774390879041
0.774390875927
0.774390870646
0.774390866675
0.774390859771
0.774390854731
0.774390846857
0.774390839993
0.774390831279
0.774390822194
0.774390812004
0.774390800699
0.774390789125
0.774390775493
0.774390764015
0.774390748988
0.774390738815
0.774390724869
0.774390716671
0.774390704837
0.774390699443
0.774390687256
0.774390684017
0.774390669327
0.762195703964
0.762195739342
0.762195719478
0.762195746328
0.762195736647
0.762195756423
0.762195753388
0.76219576921
0.762195770666
0.762195782319
0.762195785496
0.762195792616
0.762195795122
0.762195798023
0.762195798337
0.762195797798
0.762195795937
0.762195792586
0.762195789286
0.762195783662
0.762195779409
0.762195772134
0.762195766682
0.762195758419
0.762195751016
0.762195741761
0.762195732021
0.762195720991
0.762195708816
0.762195696137
0.762195681296
0.762195668626
0.762195652159
0.762195640865
0.762195625586
0.762195616468
0.762195603663
0.762195597569
0.762195584684
0.762195580826
0.762195565488
0.750000608927
0.75000064491
0.750000625439
0.750000652782
0.750000643903
0.750000664348
0.750000662289
0.750000678947
0.750000681544
0.750000693982
0.750000698098
0.750000705833
0.750000708854
0.750000712096
0.750000712543
0.750000712025
0.750000710078
0.7500007065
0.750000702998
0.750000697024
0.750000692463
0.750000684818
0.75000067893
0.750000670274
0.750000662314
0.750000652494
0.750000642072
0.750000630149
0.75000061704
0.750000603171
0.750000587008
0.750000573027
0.750000554987
0.750000542435
0.750000525711
0.750000515555
0.750000501718
0.750000494839
0.750000481245
0.750000476725
0.750000460765
0.737805513456
0.737805549848
0.737805530957
0.737805558709
0.737805550807
0.737805571925
0.737805571011
0.737805588572
0.737805592467
0.737805605788
0.737805610956
0.737805619387
0.737805622984
0.737805626603
0.737805627206
0.737805626707
0.737805624672
0.737805620852
0.737805617128
0.737805610793
0.737805605898
0.73780559788
0.737805591532
0.737805582475
0.737805573941
0.737805563528
0.737805552397
0.737805539524
0.737805525407
0.737805510256
0.737805492644
0.737805477218
0.737805457459
0.737805443491
0.737805425198
0.737805413869
0.737805398935
0.737805391179
0.737805376862
0.737805371642
0.737805355094
0.725610417527
0.725610454129
0.725610436
0.725610464087
0.725610457342
0.725610479149
0.725610479555
0.725610498106
0.725610503465
0.725610517784
0.725610524125
0.725610533344
0.725610537586
0.72561054162
0.725610542404
0.725610541922
0.725610539792
0.725610535712
0.725610531743
0.725610525035
0.725610519776
0.72561051138
0.725610504547
0.72561049508
0.725610485956
0.72561047492
0.725610463048
0.725610449167
0.725610433957
0.725610417424
0.725610398223
0.725610381201
0.725610359562
0.725610343999
0.725610324003
0.725610311348
0.725610295242
0.725610286512
0.72561027145
0.725610265504
0.725610248411
0.713415321117
0.713415357728
0.713415340539
0.713415368894
0.713415363489
0.713415386016
0.713415387927
0.713415407569
0.713415414569
0.713415430018
0.713415437665
0.713415447773
0.713415452736
0.713415457226
0.713415458216
0.713415457747
0.713415455513
0.713415451156
0.713415446913
0.71341543982
0.713415434162
0.713415425381
0.713415418038
0.713415408148
0.713415398418
0.713415386727
0.713415374078
0.713415359128
0.713415342733
0.713415324708
0.713415303766
0.713415284978
0.713415261285
0.713415243925
0.713415222078
0.713415207929
0.713415190567
0.71341518076
0.713415164929
0.713415158238
0.713415140656
0.701220224204
0.701220260626
0.701220244544
0.701220273111
0.701220269229
0.701220292518
0.701220296128
0.701220316983
0.701220325811
0.701220342539
0.701220351635
0.701220362742
0.701220368509
0.701220373499
0.701220374724
0.701220374263
0.701220371912
0.701220367258
0.701220362707
0.701220355213
0.701220349122
0.701220339946
0.701220332068
0.701220321738
0.701220311387
0.701220299009
0.701220285543
0.701220269462
0.701220251779
0.701220232144
0.701220209295
0.701220188552
0.701220162618
0.701220143239
0.701220119378
0.701220103552
0.701220084837
0.701220073847
0.701220057217
0.701220049775
0.701220031778
0.689025126768
0.689025162802
0.689025147987
0.689025176716
0.689025174542
0.689025198649
0.68902520416
0.689025226366
0.68902523722
0.689025255393
0.689025266092
0.689025278317
0.689025284979
0.689025290514
0.689025292002
0.689025291543
0.689025289059
0.689025284087
0.689025279191
0.689025271279
0.689025264716
0.689025255131
0.689025246695
0.689025235907
0.689025224918
0.68902521182
0.689025197494
0.68902518022
0.689025161138
0.689025139765
0.689025114836
0.689025091928
0.689025063555
0.689025041909
0.68902501586
0.689024998157
0.689024977984
0.689024965701
0.68902494824
0.689024940052
0.689024921734
0.676830028791
0.676830064245
0.676830050841
0.676830079694
0.676830079406
0.676830104402
0.676830112023
0.676830135734
0.676830148822
0.676830168619
0.676830181085
0.676830194556
0.676830202209
0.676830208336
0.676830210116
0.676830209652
0.676830207016
0.676830201703
0.676830196421
0.676830188071
0.676830180996
0.676830170987
0.676830161968
0.676830150702
0.67683013906
0.67683012521
0.676830109978
0.676830091446
0.676830070849
0.676830047603
0.676830020408
0.676829995111
0.676829964089
0.67682993991
0.676829911485
0.676829891693
0.676829869947
0.676829856258
0.676829837931
0.67682982902
0.676829810499
0.664634930262
0.664634964947
0.664634953086
0.664634982031
0.6646349838
0.664635009768
0.664635019711
0.664635045098
0.664635060634
0.664635082247
0.664635096653
0.664635111502
0.664635120248
0.664635127016
0.664635129116
0.66463512864
0.664635125828
0.664635120151
0.664635114439
0.664635105628
0.664635098001
0.664635087549
0.664635077924
0.664635066159
0.664635053849
0.664635039217
0.66463502303
0.664635003177
0.664634980945
0.664634955682
0.664634926035
0.664634898106
0.664634864218
0.664634837222
0.664634806222
0.664634784119
0.664634760679
0.664634745472
0.664634726243
0.664634716646
0.664634698068
0.652439831175
0.652439864912
0.652439854709
0.652439883721
0.652439887708
0.652439914739
0.652439927218
0.65243995446
0.652439972665
0.652439996294
0.652440012818
0.652440029182
0.652440039126
0.652440046582
0.652440049029
0.652440048532
0.652440045519
0.652440039452
0.652440033263
0.652440023968
0.652440015748
0.652440004832
0.652439994582
0.652439982295
0.652439969303
0.652439953862
0.652439936672
0.652439915438
0.652439891449
0.652439864021
0.65243983173
0.652439800918
0.652439763941
0.652439733835
0.652439700054
0.652439675413
0.65243965015
0.652439633317
0.652439613155
0.652439602923
0.652439584464
0.640244731533
0.640244764153
0.640244755709
0.640244784768
0.640244791116
0.640244819305
0.640244834531
0.640244863817
0.640244884911
0.640244910757
0.640244929579
0.640244947595
0.640244958841
0.640244967031
0.64024496985
0.640244969323
0.640244966079
0.640244959597
0.640244952883
0.64024494308
0.640244934228
0.640244922826
0.640244911932
0.640244899103
0.640244885417
0.640244869143
0.640244850903
0.640244828231
0.640244802367
0.640244772626
0.640244737506
0.640244703551
0.640244663266
0.64024462975
0.64024459298
0.640244565575
0.640244538362
0.6402445198
0.640244498681
0.640244487883
0.640244469746
0.62804963135
0.6280496627
0.628049656106
0.628049685189
0.62804969402
0.628049723464
0.628049741636
0.628049773153
0.628049797349
0.628049825613
0.628049846907
0.628049866706
0.628049879353
0.62804988832
0.62804989153
0.628049890964
0.628049887458
0.628049880536
0.62804987325
0.628049862916
0.628049853394
0.628049841485
0.628049829931
0.62804981654
0.628049802153
0.628049785028
0.628049765694
0.628049741535
0.628049713686
0.628049681486
0.628049643361
0.628049606009
0.628049562207
0.628049524986
0.628049485024
0.628049454636
0.628049425351
0.628049404972
0.628049382884
0.628049371602
0.62804935402
0.615854530656
0.6158545606
0.615854555941
0.615854585024
0.615854596428
0.615854627216
0.615854648517
0.615854682445
0.615854709942
0.615854740808
0.615854764738
0.615854786439
0.615854800578
0.615854810357
0.615854813971
0.615854813355
0.615854809553
0.615854802169
0.615854794266
0.615854783377
0.615854773154
0.615854760717
0.615854748493
0.615854734527
0.615854719432
0.615854701449
0.615854680985
0.6158546553
0.615854625368
0.615854590574
0.615854549289
0.615854508298
0.615854460786
0.615854419584
0.615854376241
0.615854342673
0.615854311208
0.615854288941
0.615854265892
0.615854254218
0.615854237442
0.603659429499
0.603659457924
0.603659455287
0.603659484336
0.603659498369
0.603659530574
0.603659555157
0.603659591659
0.603659622631
0.60365965626
0.603659682966
0.60365970667
0.603659722375
0.603659732991
0.603659737013
0.603659736333
0.603659732202
0.603659724337
0.603659715776
0.603659704315
0.603659693364
0.603659680384
0.603659667485
0.603659652934
0.603659637132
0.603659618292
0.603659596672
0.603659569436
0.603659537345
0.603659499841
0.603659455269
0.603659410422
0.603659359041
0.603659313613
0.603659266728
0.603659229813
0.603659196084
0.603659171885
0.603659147909
0.603659135945
0.603659120232
0.591464327946
0.591464354766
0.591464354256
0.59146438322
0.591464399897
0.591464433564
0.591464461545
0.591464500753
0.591464535336
0.591464571853
0.591464601443
0.591464627223
0.591464644544
0.591464656005
0.591464660429
0.591464659669
0.591464655175
0.591464646813
0.591464637562
0.591464625515
0.59146461382
0.591464600286
0.591464586715
0.591464571578
0.591464555078
0.591464535394
0.591464512607
0.591464483816
0.591464449518
0.591464409214
0.591464361267
0.59146431239
0.591464257026
0.591464207174
0.591464156626
0.591464116242
0.591464080202
0.591464054066
0.591464029231
0.591464017075
0.591464002669
0.579269226089
0.579269251252
0.579269252996
0.579269281805
0.579269301093
0.57926933623
0.579269367674
0.579269409679
0.57926944796
0.579269487441
0.579269519976
0.579269547867
0.579269566824
0.579269579117
0.579269583922
0.579269583063
0.579269578174
0.579269569307
0.579269559342
0.579269546705
0.579269534259
0.579269520168
0.579269505936
0.579269490223
0.579269473042
0.579269452545
0.5792694286
0.579269398272
0.579269361753
0.579269318599
0.57926926724
0.579269214213
0.579269154812
0.579269100404
0.57926904613
0.579269002217
0.579268963867
0.579268935831
0.579268910253
0.579268897991
0.579268885094
0.567074124041
0.56707414753
0.567074151698
0.567074180256
0.56707420207
0.567074238636
0.567074273547
0.567074318386
0.567074360389
0.567074402849
0.567074438335
0.567074468325
0.567074488899
0.567074501986
0.567074507135
0.567074506154
0.567074500839
0.567074491466
0.567074480775
0.567074467553
0.567074454362
0.567074439724
0.567074424853
0.567074408584
0.567074390753
0.567074369488
0.567074344416
0.567074312599
0.567074273891
0.567074227882
0.567074173138
0.567074115912
0.567074052495
0.567073993478
0.567073935482
0.567073888055
0.567073847457
0.567073817616
0.567073791462
0.567073779155
0.567073767888
0.554879021935
0.554879043771
0.554879050576
0.554879078762
0.554879102962
0.554879140861
0.554879179172
0.554879226822
0.554879272505
0.554879317888
0.554879356267
0.554879388296
0.554879410422
0.554879424238
0.554879429674
0.554879428541
0.554879422774
0.554879412901
0.554879401486
0.554879387695
0.55487937378
0.554879358613
0.554879343138
0.554879326346
0.554879307908
0.554879285942
0.554879259802
0.554879226577
0.554879185758
0.554879136944
0.55487907891
0.554879017516
0.554878950186
0.554878886601
0.554878824966
0.554878774123
0.554878731407
0.554878699912
0.554878673413
0.554878661076
0.554878651437
0.54268391991
0.54268394015
0.54268394984
0.542683977508
0.542684003904
0.542684042983
0.542684084558
0.54268413494
0.542684184192
0.542684232375
0.542684273529
0.542684307487
0.542684331062
0.542684345511
0.54268435116
0.54268434984
0.542684343594
0.542684333235
0.542684321109
0.542684306777
0.542684292172
0.542684276508
0.542684260472
0.542684243205
0.542684224217
0.542684201636
0.542684174515
0.542684139996
0.542684097198
0.542684045684
0.542683984521
0.542683919073
0.542683848013
0.542683779987
0.542683714869
0.54268366079
0.542683616153
0.542683583213
0.54268355666
0.542683544242
0.542683536056
0.530488818096
0.530488836816
0.530488849638
0.530488876631
0.53048890499
0.530488945051
0.530488989698
0.530489042694
0.530489095361
0.530489146177
0.530489189945
0.530489225691
0.53048925058
0.530489265547
0.530489271321
0.530489269772
0.530489263022
0.530489252196
0.530489239382
0.530489224542
0.530489209289
0.530489193168
0.530489176622
0.530489158937
0.53048913947
0.530489116377
0.530489088392
0.530489052726
0.530489008121
0.530488954059
0.530488889982
0.530488820655
0.530488746105
0.530488673827
0.530488605427
0.530488548348
0.530488502036
0.530488467894
0.530488441634
0.530488428999
0.530488421876
0.518293716575
0.518293733845
0.518293749962
0.51829377612
0.518293806199
0.518293847028
0.51829389454
0.518293950045
0.518294005983
0.518294059268
0.518294105502
0.518294142908
0.518294168978
0.518294184349
0.518294190157
0.518294188333
0.51829418105
0.518294169771
0.518294156291
0.518294140971
0.518294125115
0.518294108576
0.518294091572
0.518294073532
0.518294053662
0.518294030175
0.51829400146
0.518293964815
0.518293918603
0.518293862162
0.518293795392
0.518293722373
0.518293644572
0.518293568224
0.518293496721
0.518293436873
0.518293389126
0.518293354019
0.518293328422
0.51829331533
0.518293308643
0.506098615331
0.506098631159
0.506098650488
0.506098675682
0.506098707274
0.506098748703
0.506098798938
0.50609885696
0.506098916142
0.506098971848
0.50609902051
0.506099059547
0.506099086734
0.506099102437
0.506099108209
0.506099106069
0.506099098211
0.506099086475
0.50609907233
0.506099056535
0.506099040097
0.506099023164
0.506099005738
0.506098987398
0.506098967202
0.506098943436
0.506098914134
0.506098876669
0.506098829033
0.506098770343
0.506098701026
0.506098624412
0.50609854347
0.506098463096
0.506098388506
0.506098325992
0.506098276941
0.506098241007
0.506098216411
0.506098202513
0.506098195434
)
;

boundaryField
{
    inout
    {
        type            empty;
    }
    top
    {
        type            fixedValue;
        value           nonuniform List<scalar> 
41
(
0.50000106426
0.500001079463
0.500001100428
0.500001125096
0.500001157457
0.500001199218
0.500001250921
0.500001310396
0.500001371386
0.500001428443
0.500001478448
0.500001518396
0.500001546177
0.500001562036
0.500001567754
0.500001565413
0.500001557214
0.500001545213
0.5000015307
0.500001514638
0.500001497891
0.50000148075
0.500001463113
0.500001444637
0.500001424302
0.500001400439
0.500001370884
0.500001333036
0.500001284687
0.500001224801
0.500001154106
0.500001075529
0.500000992848
0.500000910237
0.500000833892
0.500000769918
0.50000072016
0.500000683782
0.500000659817
0.500000645312
0.500000637659
)
;
    }
    bottom
    {
        type            fixedValue;
        value           uniform 1;
    }
    frontback
    {
        type            empty;
    }
}


// ************************************************************************* //
