/*--------------------------------*- C++ -*----------------------------------*\
| =========                 |                                                 |
| \\      /  F ield         | OpenFOAM: The Open Source CFD Toolbox           |
|  \\    /   O peration     | Version:  2112                                  |
|   \\  /    A nd           | Website:  www.openfoam.com                      |
|    \\/     M anipulation  |                                                 |
\*---------------------------------------------------------------------------*/
FoamFile
{
    version     2.0;
    format      ascii;
    arch        "LSB;label=32;scalar=64";
    class       volScalarField;
    location    "0.6";
    object      T;
}
// * * * * * * * * * * * * * * * * * * * * * * * * * * * * * * * * * * * * * //

dimensions      [0 0 0 1 0 0 0];

internalField   nonuniform List<scalar> 
1681
(
319.822134756
319.823274739
319.825383777
319.828177672
319.831339827
319.83459846
319.837746248
319.840649629
319.843237464
319.845484788
319.847397171
319.848998299
319.850321058
319.851401622
319.8522758
319.852976959
319.853534999
319.853975984
319.854322166
319.854592238
319.854801694
319.85496323
319.855087144
319.855181719
319.855253557
319.855307885
319.855348809
319.855379536
319.855402555
319.855419787
319.855432709
319.855442454
319.85544989
319.855455691
319.855460401
319.855464478
319.855468197
319.855471172
319.855471786
319.855472287
319.855471841
319.466377595
319.469805042
319.47614413
319.484539384
319.494038315
319.503824023
319.513274345
319.521988979
319.529755112
319.536498427
319.542236106
319.547039543
319.551007623
319.55424901
319.556871208
319.558974367
319.560648209
319.561970928
319.563009284
319.563819351
319.564447604
319.564932124
319.565303803
319.56558748
319.56580296
319.565965918
319.566088672
319.566180841
319.566249889
319.566301579
319.566340342
319.566369572
319.566391877
319.566409276
319.566423401
319.566435632
319.566446813
319.566455801
319.566457523
319.566458947
319.566457708
319.110540065
319.116277419
319.126882751
319.140920197
319.156793305
319.173135526
319.188909242
319.203448574
319.216400855
319.227644169
319.237208716
319.245214611
319.251827411
319.25722869
319.261597899
319.265102102
319.267890904
319.270094654
319.271824613
319.273174225
319.274220927
319.275028168
319.275647416
319.276120052
319.27647907
319.276750584
319.276955117
319.27710869
319.277223741
319.277309871
319.27737446
319.277423165
319.277460328
319.277489313
319.27751284
319.27753322
319.277551919
319.27756709
319.277569598
319.277571728
319.277569939
318.754567403
318.762652079
318.777584746
318.79733283
318.819642573
318.842590391
318.864722201
318.88510855
318.903259974
318.919009893
318.932403872
318.94361243
318.952868919
318.960428521
318.966543045
318.971446688
318.97534904
318.97843264
318.980853247
318.982741651
318.984206222
318.985335745
318.986202235
318.986863588
318.98736597
318.987745917
318.98803214
318.988247056
318.988408067
318.988528605
318.988618996
318.988687158
318.988739161
318.988779714
318.988812619
318.988841136
318.988867402
318.988888938
318.988891863
318.988894433
318.988892281
318.398402972
318.408887793
318.42823452
318.453789859
318.482623973
318.512246148
318.540784502
318.567048916
318.590417482
318.610683094
318.627909971
318.642321392
318.654220063
318.663935749
318.671793181
318.678093995
318.683107908
318.687069692
318.690179601
318.692605736
318.694487358
318.695938542
318.697051811
318.697901543
318.698547044
318.699035247
318.699403035
318.699679207
318.699886115
318.700041017
318.700157179
318.70024477
318.700311589
318.700363683
318.700405935
318.700442565
318.700476431
318.7005045
318.700507468
318.700510219
318.700507821
318.041987492
318.05494141
318.078815512
318.110303672
318.145775521
318.182160525
318.217167475
318.249349532
318.27795805
318.302750765
318.323814791
318.34142918
318.355967987
318.367836801
318.377433992
318.38512902
318.391251908
318.396089715
318.399887178
318.402849666
318.405147276
318.406919316
318.408278764
318.409316434
318.410104733
318.410700963
318.411150155
318.411487467
318.411740192
318.411929399
318.412071287
318.412178272
318.412259876
318.412323477
318.412375038
318.412419743
318.412461219
318.412495967
318.412498618
318.412501328
318.412498752
317.685258247
317.700767317
317.729309972
317.766886461
317.809135487
317.85239154
317.893942554
317.932090097
317.965965939
317.995299286
318.020205336
318.041022591
318.058198872
318.072217083
318.083550104
318.092635674
318.099864331
318.105575487
318.110058341
318.113555481
318.116267764
318.118359664
318.119964548
318.121189608
318.122120309
318.122824281
318.123354672
318.123752982
318.124051421
318.124274861
318.12444242
318.124568755
318.124665103
318.124740171
318.124800991
318.124853724
318.124902797
318.124944334
318.124946339
318.124948827
318.124946104
317.328148261
317.346316884
317.379698726
317.423550218
317.472742493
317.522997594
317.571181311
317.615350124
317.654524911
317.688414284
317.717167672
317.741187345
317.760997722
317.77716076
317.790224848
317.800696537
317.809027115
317.815608411
317.820774069
317.824803819
317.827929201
317.830339766
317.832189193
317.833600986
317.83467361
317.835484979
317.836096325
317.836555458
317.836899489
317.837157072
317.837350235
317.837495866
317.837606911
317.837693395
317.837763419
317.837824118
317.83788075
317.837929149
317.837930212
317.83793233
317.837929469
316.970585406
316.991537865
317.029960956
317.080306757
317.136635622
317.194037559
317.248955483
317.299208888
317.343718123
317.38218048
317.414786732
317.442007873
317.464448136
317.482750508
317.497540014
317.509392604
317.518820577
317.52626825
317.532113675
317.536673645
317.54021028
317.542938108
317.545031029
317.546628781
317.547842763
317.548761123
317.549453132
317.549972882
317.550362356
317.550653975
317.550872663
317.551037526
317.55116321
317.551261053
317.551340214
317.551408806
317.551472933
317.551528225
317.551528085
317.551529714
317.551526711
316.612491457
316.636373781
316.680073987
316.737167756
316.80085454
316.865570875
316.927336987
316.98374537
317.033627999
317.076681518
317.113146113
317.143567076
317.168632054
317.189067249
317.205575567
317.218802999
317.229323131
317.237632835
317.244154523
317.249241954
317.253187709
317.256231181
317.258566381
317.260349195
317.261703879
317.262728755
317.263501088
317.264081211
317.264515955
317.264841485
317.265085603
317.265269622
317.265409878
317.265519013
317.265607235
317.265683632
317.265755167
317.265817342
317.265815774
317.265816811
317.265813654
316.253781058
316.280763273
316.330013105
316.394144834
316.465439649
316.537657643
316.606397938
316.669038186
316.724336097
316.771999775
316.81232785
316.845946082
316.873629491
316.896189875
316.914409366
316.929004682
316.940610982
316.949777753
316.956971709
316.962583454
316.966935897
316.97029316
316.972869252
316.974836098
316.976330731
316.977461576
316.97831384
316.978954054
316.979433866
316.979793159
316.980062596
316.980265683
316.980420434
316.980540785
316.980637981
316.980722082
316.980800913
316.980869919
316.980866732
316.980867088
316.98086376
315.894360603
315.924639438
315.979751394
316.051249678
316.130432252
316.210358733
316.286210652
316.355165503
316.415922953
316.468216158
316.512412174
316.549223982
316.579518254
316.604194949
316.624116856
316.640072134
316.65275781
316.662776034
316.67063774
316.676770241
316.68152662
316.685195579
316.688010986
316.690160694
316.691794416
316.693030606
316.693962347
316.694662328
316.695186973
316.695579858
316.695874486
316.696096539
316.696265697
316.696397176
316.696503251
316.696594939
316.696680929
316.696756672
316.696751711
316.696751306
316.696747794
315.534127008
315.56792912
315.62925962
315.708494221
315.795874771
315.883735908
315.96684765
316.042204944
316.108467912
316.165409881
316.21347726
316.253477545
316.286373644
316.313156396
316.334770744
316.352077031
316.365834435
316.376697802
316.385222186
316.391871451
316.397028674
316.40100697
316.404059917
316.406391165
316.408163002
316.409503825
316.410514529
316.411273903
316.411843112
316.412269393
316.412589063
316.412829964
316.413013427
316.413155937
316.413270781
316.413369927
316.413462914
316.413545264
316.413538405
316.413537167
316.413533461
315.172966348
315.21055219
315.27850617
315.365890876
315.461810988
315.557851947
315.648381661
315.730233483
315.802048947
315.863658237
315.915598957
315.958780928
315.994268147
316.02314518
316.046440671
316.065087898
316.079908468
316.091609929
316.10079133
316.107952898
316.113507511
316.117792504
316.121080999
316.123592301
316.125501155
316.126945805
316.128034886
316.128853229
316.129466693
316.129926142
316.130270684
316.130530298
316.130727951
316.130881381
316.131004874
316.131111334
316.131211133
316.13129992
316.131291074
316.13128894
316.131285039
314.81075234
314.85242078
314.92745705
315.023452862
315.128286341
315.232770796
315.330885611
315.419327323
315.49674246
315.563036341
315.618850502
315.665205365
315.703271105
315.734228959
315.759192859
315.77916976
315.795043948
315.807575662
315.817407785
315.825076699
315.831024857
315.835613605
315.839135423
315.841825114
315.84386975
315.84541732
315.846584114
315.847460942
315.848118309
315.848610667
315.848979885
315.849258057
315.849469769
315.849633996
315.849766007
315.849879619
315.849986024
315.850081044
315.850070156
315.850067074
315.850062987
314.447344641
314.493438498
314.576075973
314.681194608
314.795348268
314.908557722
315.014432615
315.109561761
315.192623067
315.263616867
315.323302217
315.372818843
315.413448374
315.446471738
315.473089747
315.494383759
315.511300966
315.52465424
315.535130114
315.543300882
315.54963832
315.554527555
315.558280218
315.561146438
315.563325474
315.564974943
315.5662187
315.567153466
315.567854334
315.568379304
315.568772973
315.569069529
315.569295151
315.569470039
315.56961042
315.56973101
315.56984379
315.569944808
315.569931857
315.569927787
315.569923537
314.082586928
314.13349961
314.224324561
314.339132273
314.4630466
314.585279488
314.699095957
314.801011041
314.889763365
314.965469763
315.029021196
315.081685765
315.124861974
315.1599335
315.188189616
315.210786779
315.22873527
315.2429005
315.254012427
315.262678979
315.269400981
315.27458708
315.278567837
315.281608515
315.283920404
315.285670627
315.286990504
315.287982587
315.2887265
315.289283744
315.28970161
315.290016348
315.290255715
315.29044111
315.290589703
315.290717078
315.290835981
315.290942732
315.290927733
315.290922653
315.290918278
313.716304711
313.772488199
313.872162671
313.997284382
314.131434026
314.263004538
314.384949065
314.493748187
314.588233687
314.668661955
314.736070979
314.791866599
314.837569719
314.874669828
314.904546204
314.928431049
314.947397866
314.962364467
314.974103966
314.983259614
314.990360974
314.995839933
315.000045733
315.003258567
315.005701586
315.00755128
315.008946328
315.009995027
315.010781468
315.011370602
315.011812375
315.012145069
315.012397992
315.012593725
315.012750355
315.012884308
315.013009061
315.013121253
315.013104259
315.013098165
315.01309372
313.348302829
313.410277314
313.519548908
313.655672619
313.800566613
313.941803199
314.072065471
314.187844826
314.288101838
314.373257038
314.444511204
314.503417518
314.551624848
314.59073152
314.622208308
314.647363739
314.66733461
314.683090941
314.695448689
314.705086076
314.71256106
314.718328459
314.722755927
314.726138362
314.728710591
314.730658322
314.732127476
314.733232004
314.734060389
314.734680977
314.735146327
314.73549672
314.735762989
314.735968871
314.736133349
314.736273656
314.736403965
314.73652128
314.736502384
314.736495296
314.736490852
312.978362569
313.046728107
313.16644135
313.314322784
313.470504409
313.621747891
313.760518768
313.883370989
313.989432818
314.07931495
314.154397267
314.216390039
314.267075642
314.308164201
314.341219386
314.367626552
314.388585791
314.405119077
314.418084843
314.428195891
314.436038195
314.442089163
314.446734572
314.450283777
314.452983081
314.455027251
314.456569318
314.457728788
314.458598457
314.459250007
314.45973856
314.460106363
314.460385741
314.460601565
314.460773684
314.460920105
314.461055656
314.461177754
314.461157092
314.461149053
314.4611447
312.606238317
312.681689003
312.812798546
312.973265946
313.141312106
313.302913352
313.450382551
313.580394903
313.692288533
313.786891648
313.865779965
313.930830645
313.983965045
314.02700793
314.06161716
314.089255322
314.111185721
314.128481966
314.142044545
314.152620396
314.160823097
314.167152277
314.172011514
314.175724359
314.178548369
314.180687197
314.182300843
314.183514259
314.184424471
314.185106426
314.185617762
314.186002646
314.18629487
314.186520406
314.186699942
314.18685222
314.186992679
314.1871192
314.187096949
314.187088034
314.187083879
312.231653661
312.3149949
312.45858086
312.632539823
312.813059792
312.985376862
313.141730343
313.278982766
313.396727499
313.496038767
313.57870514
313.646780424
313.702330283
313.747296813
313.783433218
313.812279607
313.835162327
313.853206224
313.867353357
313.878384317
313.886939827
313.893541331
313.898609868
313.902482892
313.905428984
313.907660488
313.909344226
313.910610475
313.911560394
313.912272128
313.912805771
313.91320737
313.913512144
313.91374714
313.913933851
313.914091711
313.914236728
313.914367289
313.914343676
313.914333987
313.914330153
311.854296804
311.94646647
312.103752249
312.292190415
312.485823764
312.669218477
312.834635509
312.979198506
313.102804535
313.20680329
313.293213331
313.364274706
313.422202499
313.469058628
313.506692634
313.536722304
313.560536755
313.579311589
313.594029893
313.605505363
313.614405371
313.621272742
313.626545597
313.630574985
313.633640255
313.635962237
313.63771441
313.639032244
313.640020936
313.640761747
313.641317163
313.641735065
313.642052059
313.642296236
313.642489861
313.642653013
313.642802216
313.64293642
313.642911717
313.642901388
313.642898015
311.473815151
311.575909598
311.748282572
311.952273917
312.159687424
312.354521247
312.529171146
312.681103536
312.810570455
312.919227215
313.009339432
313.083342715
313.143606396
313.192314465
313.231413599
313.262599278
313.287322997
313.306810547
313.322085425
313.333993838
313.34322926
313.350355422
313.355827124
313.360008675
313.363189915
313.365599937
313.367418703
313.368786736
313.369813155
313.370582253
313.371158845
313.371592587
313.371921436
313.372174489
313.372374745
313.372542882
313.372695884
313.372833315
313.372807845
313.372797041
313.372794281
311.089808866
311.203115056
311.392150577
311.612858948
311.834742219
312.041371426
312.22540996
312.384756491
312.520071767
312.633347239
312.727112365
312.804007241
312.86655991
312.917078394
312.95760709
312.98991902
313.015527542
313.035707977
313.051523538
313.063852284
313.073413204
313.080790416
313.086454967
313.090784061
313.094077733
313.096573103
313.098456417
313.099873104
313.100936086
313.101732591
313.102329689
313.102778758
313.103119055
313.103380647
313.103587232
313.103760028
313.103916426
313.104056652
313.104030786
313.104019703
313.104017721
310.701823166
310.827858517
311.035347724
311.27402912
311.51108863
311.729858657
311.923424116
312.090212962
312.231350368
312.349194448
312.446554785
312.526284346
312.591073908
312.64335716
312.685276559
312.718682337
312.74514907
312.766000841
312.78233981
312.795075169
312.804950776
312.812570583
312.818421415
312.822892983
312.826295195
312.82887294
312.830818542
312.832282169
312.833380417
312.834203348
312.834820207
312.835284029
312.835635326
312.83590509
312.836117678
312.83629479
312.836454164
312.836596739
312.836570902
312.836559763
312.836558732
310.309339042
310.449901074
310.677883054
310.93588595
311.188837178
311.420076109
311.623285058
311.797525226
311.944443264
312.066794045
312.167682803
312.250183089
312.317151926
312.371149926
312.414417677
312.448882096
312.476178185
312.497677918
312.514521548
312.527648609
312.537827139
312.545680325
312.551710262
312.556318748
312.559825228
312.562482073
312.564487468
312.565996138
312.567128215
312.567976483
312.568612275
312.569090215
312.569452013
312.569729549
312.569947789
312.570128861
312.570290777
312.57043524
312.570409902
312.570398958
312.570399057
309.911762016
310.068990485
310.31978936
310.598552143
310.868109393
311.112120563
311.325063303
311.506741972
311.659382297
311.786165097
311.89050576
311.975705319
312.044789961
312.100448064
312.145018124
312.180503011
312.208597208
312.230719595
312.248047573
312.261550167
312.27201884
312.280095371
312.286296586
312.291035921
312.294641984
312.297374336
312.299436775
312.300988397
312.302152713
312.303025112
312.303678919
312.304170274
312.304542028
312.304826897
312.305050416
312.305235071
312.305399082
312.305544955
312.305520641
312.305510164
312.305511573
309.508408449
309.684863446
309.961130967
310.262175199
310.549038725
310.806092422
311.028828206
311.217908031
311.376193908
311.507320325
311.615026037
311.702845496
311.773976308
311.831235001
311.877057444
311.913521502
311.942380037
311.965097727
311.982888087
311.996748707
312.007493665
312.015782643
312.022146618
312.02701018
312.030710707
312.033514626
312.035631093
312.037223364
312.038418168
312.039313368
312.039984177
312.040488172
312.040869282
312.041161008
312.041389406
312.041577253
312.041742901
312.041889691
312.041866971
312.041857251
312.041860147
309.098488743
309.297249319
309.602013527
309.926931308
310.231771302
310.502095624
310.734647681
310.931064109
311.094898917
311.230265942
311.341238927
311.431590591
311.504691472
311.563486142
311.610506969
311.647905622
311.677492073
311.700775567
311.719004603
311.733204331
311.744210579
311.752700193
311.759217675
311.76419826
311.767987668
311.770858852
311.773026044
311.77465644
311.775879808
311.776796345
311.777483042
311.777998826
311.778388634
311.7786867
311.778919551
311.779110185
311.779276999
311.779424195
311.77940369
311.779395029
311.77939958
308.681086642
308.905875888
309.242596301
309.593029422
309.916466453
310.200237434
310.442587886
310.646246531
310.815512353
310.955001536
311.069132566
311.161920041
311.236908146
311.297168859
311.34532982
311.383615071
311.413890244
311.437707791
311.456349968
311.470868408
311.482119755
311.490797228
311.497458195
311.502547982
311.506420203
311.509353962
311.511568275
311.513234036
311.514483862
311.515420132
311.516121497
311.516648137
311.517045926
311.517349772
311.517586622
311.517779623
311.517947126
311.518094197
311.51807657
311.51806928
311.518075636
308.255133559
308.510477955
308.883107519
309.260715312
309.603296904
309.9006281
310.15271287
310.363487002
310.53804332
310.681520017
310.798687929
310.893805788
310.970591272
311.03224257
311.081481
311.120601289
311.151523102
311.175840605
311.194868483
311.20968369
311.221162694
311.230014241
311.236807862
311.241998385
311.245946837
311.248938081
311.251195593
311.252893711
311.254167698
311.255121949
311.25583665
311.256373129
311.256778118
311.257087139
311.257327508
311.257522443
311.257690153
311.257836545
311.257822504
311.257816897
311.257825185
307.819376565
308.11080986
308.523863544
308.930275326
309.292448492
309.603380348
309.865084174
310.082812373
310.262494913
310.409807632
310.52987891
310.627212392
310.705698182
310.768658904
310.818907574
310.858807654
310.890331032
310.91511196
310.934496116
310.949584537
310.961272452
310.970283241
310.97719784
310.982479962
310.986497529
310.989540744
310.991837203
310.993564413
310.994860063
310.995830393
310.996556978
310.997102191
310.997513534
310.99782708
310.998070457
310.998266883
310.998434315
310.998579445
310.99856974
310.998566133
310.998576436
307.372338267
307.706663462
308.165292731
308.602039384
308.984119264
309.308608714
309.579760388
309.804244444
309.988864189
310.139844039
310.262672464
310.36209723
310.442178835
310.50636196
310.557548944
310.59816977
310.630246553
310.65545186
310.675160826
310.690497244
310.702373977
310.711528085
310.718551117
310.723915003
310.727994016
310.731083252
310.733414063
310.735166834
310.736481443
310.737465787
310.738202685
310.738755435
310.739172219
310.739489589
310.739735436
310.739932901
310.740099573
310.740242827
310.740238246
310.740236954
310.740249301
306.912266234
307.297893654
307.807965039
308.276382546
308.678517788
309.0164287
309.29679667
309.527799784
309.717142194
309.871602462
309.997028846
310.098410784
310.179976141
310.245288657
310.297337225
310.338615866
310.371194727
310.396782787
310.416782989
310.432340477
310.44438455
310.453664938
310.460782956
310.466218054
310.470350276
310.473479132
310.475839348
310.477613871
310.478944522
310.479940654
310.480686169
310.481245164
310.481666406
310.481986852
310.482234601
310.482432645
310.482598087
310.482738808
310.482740174
310.482741523
310.48275586
306.437068945
306.884454297
307.45262869
307.953724147
308.375860511
308.726955794
309.016244223
309.253489573
309.447314053
309.605049917
309.732901921
309.836097013
309.919026376
309.985369186
310.038197722
310.080067281
310.113093667
310.13902022
310.159275939
310.175025821
310.187214337
310.196602821
310.203801463
310.209296487
310.213473096
310.216634715
310.219019027
310.220811215
310.222154773
310.223160299
310.223912608
310.224476462
310.224901106
310.225223829
310.225472881
310.225671044
310.225834799
310.225972285
310.225980452
310.225984787
310.226000948
305.944234249
306.466448554
307.100255393
307.634523076
308.076368037
308.440304374
308.738149732
308.981319493
309.179359116
309.340147508
309.47023956
309.57509381
309.659259685
309.726527551
309.780049493
309.822439065
309.855855152
309.882073266
309.902546601
309.918458428
309.930767053
309.940244288
309.947508256
309.953051176
309.957262762
309.960449818
309.962852553
309.964658032
309.966011143
309.967023501
309.967780653
309.968347883
309.968774803
309.969098952
309.969348678
309.969546495
309.969708138
309.969841627
309.969857474
309.969865186
309.96988285
305.430725058
306.044199073
306.752095947
307.319267155
307.780260235
308.156586605
308.462554765
308.711289636
308.91325118
309.076850799
309.208984106
309.315333545
309.400600678
309.468682194
309.522806015
309.565640657
309.599385326
309.625845379
309.646496234
309.662537768
309.674940715
309.684486185
309.691799244
309.697377282
309.701613839
309.704818537
309.707233655
309.709047766
309.710406855
309.711423313
309.712183228
309.712752252
309.713180252
309.713504923
309.713754664
309.713951676
309.714110819
309.714239484
309.7142639
309.714275467
309.714294097
304.892845295
305.618345614
306.409748247
307.00845374
307.487750274
307.875911432
308.189495127
308.443394463
308.648958759
308.815110251
308.94907292
309.056743676
309.142969092
309.211746707
309.266375921
309.309576657
309.343585496
309.370235173
309.391021251
309.407158465
309.419628499
309.429220518
309.436565493
309.442165119
309.446416048
309.449630129
309.45205122
309.45386902
309.455230291
309.45624795
309.457008421
309.457577565
309.458005374
309.458329615
309.458578677
309.458774427
309.458930744
309.459053683
309.45908755
309.459103592
309.459122373
304.326066823
305.189980543
306.075240045
306.702557502
307.199037898
307.598383859
307.919000161
308.177622797
308.386445431
308.554871715
308.690438984
308.799247431
308.886280526
308.955630606
309.010663814
309.054147666
309.088352994
309.115137307
309.136014129
309.152211218
309.164719664
309.174335386
309.181694172
309.187301116
309.191555232
309.194769971
309.197190269
309.199006533
309.200365975
309.20138177
309.202140464
309.202707957
309.203134238
309.203457043
309.203704699
309.203898741
309.204051983
309.204168213
309.204212371
309.204233736
309.204251483
303.724805009
304.760836654
305.751128906
306.401979762
306.914302731
307.324104746
307.651091943
307.913957871
308.125670229
308.296076988
308.433011561
308.54276454
308.630447237
308.700240174
308.755571142
308.799251194
308.833582109
308.860443434
308.881364374
308.897583786
308.910100553
308.919715991
308.927069568
308.932668834
308.936914376
308.940120599
308.942532981
308.94434221
308.945695602
308.946706309
308.947460772
308.948024754
308.948448099
308.948768414
308.9490139
308.949205794
308.949355823
308.949464279
308.949519478
308.94954735
308.949562418
)
;

boundaryField
{
    inout
    {
        type            empty;
    }
    top
    {
        type            fixedValue;
        value           nonuniform List<scalar> 
41
(
303.403465718
304.547191998
305.595875426
306.254475673
306.774000922
307.188638083
307.518438148
307.783167663
307.996129185
308.167370713
308.30486425
308.414988303
308.502913129
308.572859783
308.628284156
308.672016929
308.706373615
308.733243351
308.754161987
308.770372933
308.782878126
308.792480874
308.799821894
308.805409472
308.809644569
308.812841728
308.815246421
308.817049252
308.818397407
308.81940388
308.820154944
308.820716195
308.821137339
308.821455857
308.821699855
308.821890459
308.822038885
308.822142893
308.822203912
308.822235579
308.822248468
)
;
    }
    bottom
    {
        type            fixedValue;
        value           uniform 320;
    }
    frontback
    {
        type            empty;
    }
}


// ************************************************************************* //
