/*--------------------------------*- C++ -*----------------------------------*\
| =========                 |                                                 |
| \\      /  F ield         | OpenFOAM: The Open Source CFD Toolbox           |
|  \\    /   O peration     | Version:  2112                                  |
|   \\  /    A nd           | Website:  www.openfoam.com                      |
|    \\/     M anipulation  |                                                 |
\*---------------------------------------------------------------------------*/
FoamFile
{
    version     2.0;
    format      ascii;
    arch        "LSB;label=32;scalar=64";
    class       surfaceScalarField;
    location    "4";
    object      phi;
}
// * * * * * * * * * * * * * * * * * * * * * * * * * * * * * * * * * * * * * //

dimensions      [1 0 -1 0 0 0 0];

oriented        oriented;

internalField   nonuniform List<scalar> 
23692
(
2.32905e-06
-2.06577e-09
2.33279e-06
-3.73901e-09
2.33802e-06
-5.22319e-09
2.34455e-06
-6.52381e-09
2.35223e-06
-7.68384e-09
2.36097e-06
-8.7295e-09
2.37065e-06
-9.67854e-09
2.3812e-06
-1.0545e-08
2.39255e-06
-1.13398e-08
2.40463e-06
-1.20716e-08
2.41738e-06
-1.27476e-08
2.43076e-06
-1.33733e-08
2.44473e-06
-1.39536e-08
2.45923e-06
-1.44925e-08
2.47423e-06
-1.49933e-08
2.4897e-06
-1.54587e-08
2.5056e-06
-1.58912e-08
2.52191e-06
-1.62926e-08
2.53858e-06
-1.66646e-08
2.55561e-06
-1.70085e-08
2.57294e-06
-1.73255e-08
2.59057e-06
-1.76165e-08
2.60847e-06
-1.78824e-08
2.62661e-06
-1.81238e-08
2.64496e-06
-1.83411e-08
2.66351e-06
-1.85349e-08
2.68223e-06
-1.87057e-08
2.70109e-06
-1.88535e-08
2.72009e-06
-1.89789e-08
2.73918e-06
-1.90819e-08
2.75836e-06
-1.91628e-08
2.77759e-06
-1.92217e-08
2.79687e-06
-1.92589e-08
2.81616e-06
-1.92743e-08
2.83544e-06
-1.92682e-08
2.85469e-06
-1.92404e-08
2.87389e-06
-1.91911e-08
2.89303e-06
-1.91201e-08
2.91207e-06
-1.90272e-08
2.93099e-06
-1.89124e-08
2.94978e-06
-1.87753e-08
2.96841e-06
-1.86154e-08
2.98685e-06
-1.84323e-08
3.00509e-06
-1.82253e-08
3.02309e-06
-1.79935e-08
3.04084e-06
-1.77361e-08
3.0583e-06
-1.74517e-08
3.07545e-06
-1.7139e-08
3.09226e-06
-1.67962e-08
3.10869e-06
-1.64215e-08
3.12471e-06
-1.60122e-08
3.14029e-06
-1.55658e-08
3.15538e-06
-1.50789e-08
3.16994e-06
-1.45476e-08
3.18391e-06
-1.39674e-08
3.19725e-06
-1.33327e-08
3.2099e-06
-1.26371e-08
3.22178e-06
-1.18728e-08
3.23282e-06
-1.10304e-08
3.24292e-06
-1.00986e-08
3.25199e-06
-9.06337e-09
3.25991e-06
-7.90766e-09
3.26653e-06
-6.61013e-09
3.27168e-06
-5.14402e-09
3.27516e-06
-3.47535e-09
3.27673e-06
-1.5605e-09
3.27607e-06
6.57418e-10
3.27282e-06
3.25559e-09
3.26649e-06
6.33877e-09
3.25644e-06
1.0052e-08
3.24185e-06
1.46007e-08
3.22157e-06
2.02829e-08
3.19403e-06
2.75429e-08
3.15698e-06
3.70617e-08
3.10707e-06
4.9912e-08
3.03925e-06
6.78298e-08
2.94557e-06
9.36845e-08
2.81323e-06
1.32342e-07
2.62058e-06
1.92655e-07
2.32807e-06
2.92515e-07
4.82407e-07
1.84566e-06
2.49213e-06
-4.22269e-09
2.49611e-06
-7.71808e-09
2.50169e-06
-1.0795e-08
2.50865e-06
-1.34866e-08
2.51686e-06
-1.58878e-08
2.52619e-06
-1.80522e-08
2.53653e-06
-2.00163e-08
2.5478e-06
-2.18094e-08
2.55992e-06
-2.3454e-08
2.57283e-06
-2.49681e-08
2.58646e-06
-2.63663e-08
2.60075e-06
-2.76607e-08
2.61567e-06
-2.88611e-08
2.63116e-06
-2.99756e-08
2.64719e-06
-3.10112e-08
2.66372e-06
-3.19737e-08
2.68071e-06
-3.28678e-08
2.69812e-06
-3.36975e-08
2.71594e-06
-3.44663e-08
2.73412e-06
-3.51771e-08
2.75264e-06
-3.58321e-08
2.77147e-06
-3.64333e-08
2.79059e-06
-3.69824e-08
2.80996e-06
-3.74807e-08
2.82956e-06
-3.79293e-08
2.84937e-06
-3.83292e-08
2.86936e-06
-3.86812e-08
2.88951e-06
-3.89859e-08
2.90978e-06
-3.9244e-08
2.93017e-06
-3.94558e-08
2.95065e-06
-3.96219e-08
2.97118e-06
-3.97425e-08
2.99176e-06
-3.9818e-08
3.01235e-06
-3.98485e-08
3.03293e-06
-3.98344e-08
3.05348e-06
-3.97755e-08
3.07397e-06
-3.96719e-08
3.09439e-06
-3.95235e-08
3.1147e-06
-3.933e-08
3.1349e-06
-3.9091e-08
3.15494e-06
-3.88058e-08
3.17481e-06
-3.84736e-08
3.19448e-06
-3.80933e-08
3.21394e-06
-3.76637e-08
3.23314e-06
-3.71829e-08
3.25206e-06
-3.66491e-08
3.27068e-06
-3.60597e-08
3.28897e-06
-3.54118e-08
3.30688e-06
-3.4702e-08
3.3244e-06
-3.39261e-08
3.34148e-06
-3.30793e-08
3.35808e-06
-3.2156e-08
3.37416e-06
-3.11493e-08
3.38967e-06
-3.00515e-08
3.40457e-06
-2.8853e-08
3.41879e-06
-2.7543e-08
3.43227e-06
-2.61081e-08
3.44493e-06
-2.45327e-08
3.45671e-06
-2.27977e-08
3.4675e-06
-2.08802e-08
3.4772e-06
-1.87523e-08
3.48568e-06
-1.63796e-08
3.49279e-06
-1.37195e-08
3.49837e-06
-1.07188e-08
3.50222e-06
-7.3102e-09
3.50407e-06
-3.40777e-09
3.50363e-06
1.09969e-09
3.50054e-06
6.36028e-09
3.49431e-06
1.25737e-08
3.48435e-06
2.00123e-08
3.46991e-06
2.90547e-08
3.44996e-06
4.0238e-08
3.42317e-06
5.43388e-08
3.38773e-06
7.25035e-08
3.34119e-06
9.64513e-08
3.28024e-06
1.28789e-07
3.20048e-06
1.73454e-07
3.09656e-06
2.36267e-07
2.96361e-06
3.25605e-07
2.80493e-06
4.51201e-07
6.06705e-07
2.68064e-06
2.66662e-06
-6.45855e-09
2.67083e-06
-1.1933e-08
2.67675e-06
-1.67121e-08
2.68417e-06
-2.08949e-08
2.69291e-06
-2.46252e-08
2.70285e-06
-2.79864e-08
2.71387e-06
-3.10359e-08
2.72589e-06
-3.38193e-08
2.73881e-06
-3.63719e-08
2.75258e-06
-3.87216e-08
2.76711e-06
-4.08911e-08
2.78236e-06
-4.28991e-08
2.79827e-06
-4.47609e-08
2.81479e-06
-4.64893e-08
2.83189e-06
-4.8095e-08
2.84951e-06
-4.9587e-08
2.86763e-06
-5.09726e-08
2.88621e-06
-5.22583e-08
2.9052e-06
-5.34493e-08
2.92459e-06
-5.455e-08
2.94434e-06
-5.5564e-08
2.96441e-06
-5.64944e-08
2.98479e-06
-5.73437e-08
3.00544e-06
-5.81142e-08
3.02633e-06
-5.88074e-08
3.04744e-06
-5.94249e-08
3.06874e-06
-5.9968e-08
3.09021e-06
-6.04376e-08
3.11182e-06
-6.08346e-08
3.13354e-06
-6.11599e-08
3.15534e-06
-6.1414e-08
3.17722e-06
-6.15975e-08
3.19912e-06
-6.17109e-08
3.22105e-06
-6.17545e-08
3.24296e-06
-6.17287e-08
3.26483e-06
-6.16335e-08
3.28664e-06
-6.14688e-08
3.30837e-06
-6.12346e-08
3.32998e-06
-6.09303e-08
3.35146e-06
-6.05554e-08
3.37278e-06
-6.01089e-08
3.39391e-06
-5.95896e-08
3.41482e-06
-5.89958e-08
3.4355e-06
-5.83255e-08
3.45591e-06
-5.7576e-08
3.47601e-06
-5.67444e-08
3.49579e-06
-5.58269e-08
3.51521e-06
-5.48191e-08
3.53424e-06
-5.37155e-08
3.55283e-06
-5.25101e-08
3.57096e-06
-5.11955e-08
3.58858e-06
-4.97629e-08
3.60564e-06
-4.82023e-08
3.6221e-06
-4.65017e-08
3.63791e-06
-4.46468e-08
3.653e-06
-4.26212e-08
3.6673e-06
-4.04048e-08
3.68075e-06
-3.79741e-08
3.69327e-06
-3.53007e-08
3.70474e-06
-3.23505e-08
3.71508e-06
-2.90821e-08
3.72416e-06
-2.54447e-08
3.73182e-06
-2.1376e-08
3.73791e-06
-1.67984e-08
3.74222e-06
-1.16146e-08
3.74452e-06
-5.70149e-09
3.74453e-06
1.09801e-09
3.74191e-06
8.98897e-09
3.73624e-06
1.82426e-08
3.72704e-06
2.92217e-08
3.71369e-06
4.24167e-08
3.69543e-06
5.84986e-08
3.67138e-06
7.83969e-08
3.64048e-06
1.03408e-07
3.60159e-06
1.35346e-07
3.55367e-06
1.76715e-07
3.49628e-06
2.30855e-07
3.43071e-06
3.01834e-07
3.36278e-06
3.93548e-07
3.30836e-06
5.05621e-07
6.19621e-07
3.29545e-06
2.85331e-06
-8.7684e-09
2.85775e-06
-1.63738e-08
2.86402e-06
-2.29714e-08
2.87188e-06
-2.87525e-08
2.88116e-06
-3.39055e-08
2.89173e-06
-3.85468e-08
2.90346e-06
-4.27567e-08
2.91624e-06
-4.65982e-08
2.93e-06
-5.01202e-08
2.94465e-06
-5.33615e-08
2.96012e-06
-5.63536e-08
2.97635e-06
-5.91222e-08
2.99329e-06
-6.16887e-08
3.01088e-06
-6.40706e-08
3.02908e-06
-6.62828e-08
3.04785e-06
-6.83377e-08
3.06714e-06
-7.02456e-08
3.08691e-06
-7.20152e-08
3.10713e-06
-7.36539e-08
3.12776e-06
-7.51676e-08
3.14877e-06
-7.65615e-08
3.17013e-06
-7.78399e-08
3.19181e-06
-7.90061e-08
3.21378e-06
-8.00632e-08
3.236e-06
-8.10136e-08
3.25845e-06
-8.18594e-08
3.2811e-06
-8.26021e-08
3.30392e-06
-8.32434e-08
3.32689e-06
-8.37844e-08
3.34997e-06
-8.42262e-08
3.37315e-06
-8.45697e-08
3.39638e-06
-8.48156e-08
3.41965e-06
-8.49648e-08
3.44293e-06
-8.50175e-08
3.46619e-06
-8.49743e-08
3.48941e-06
-8.48353e-08
3.51256e-06
-8.46006e-08
3.53561e-06
-8.42697e-08
3.55854e-06
-8.38424e-08
3.58132e-06
-8.33176e-08
3.60392e-06
-8.26942e-08
3.62631e-06
-8.19704e-08
3.64847e-06
-8.11442e-08
3.67038e-06
-8.02126e-08
3.69199e-06
-7.91724e-08
3.71328e-06
-7.80193e-08
3.73421e-06
-7.67484e-08
3.75476e-06
-7.53536e-08
3.77488e-06
-7.38278e-08
3.79455e-06
-7.21628e-08
3.81371e-06
-7.03486e-08
3.83234e-06
-6.83737e-08
3.85037e-06
-6.62246e-08
3.86776e-06
-6.38853e-08
3.88447e-06
-6.13371e-08
3.90041e-06
-5.85579e-08
3.91554e-06
-5.55216e-08
3.92977e-06
-5.21973e-08
3.94303e-06
-4.85479e-08
3.95522e-06
-4.45291e-08
3.96623e-06
-4.00875e-08
3.97595e-06
-3.51582e-08
3.98425e-06
-2.9662e-08
3.99096e-06
-2.35013e-08
3.99591e-06
-1.65553e-08
3.99889e-06
-8.67304e-09
3.99966e-06
3.34597e-10
3.99795e-06
1.07086e-08
3.99344e-06
2.27571e-08
3.98578e-06
3.68839e-08
3.97459e-06
5.36132e-08
3.95947e-06
7.36307e-08
3.94004e-06
9.78331e-08
3.91607e-06
1.27387e-07
3.88764e-06
1.63783e-07
3.85551e-06
2.08851e-07
3.82172e-06
2.64647e-07
3.79056e-06
3.33004e-07
3.76982e-06
4.14292e-07
3.77105e-06
5.04391e-07
5.88585e-07
3.80209e-06
3.05307e-06
-1.11503e-08
3.05773e-06
-2.10323e-08
3.06433e-06
-2.9569e-08
3.07265e-06
-3.70599e-08
3.08248e-06
-4.37349e-08
3.09368e-06
-4.97448e-08
3.10613e-06
-5.51944e-08
3.1197e-06
-6.01654e-08
3.13431e-06
-6.47217e-08
3.14988e-06
-6.89136e-08
3.16631e-06
-7.27821e-08
3.18356e-06
-7.63604e-08
3.20156e-06
-7.96763e-08
3.22026e-06
-8.27528e-08
3.2396e-06
-8.5609e-08
3.25954e-06
-8.8261e-08
3.28003e-06
-9.07224e-08
3.30103e-06
-9.30042e-08
3.32251e-06
-9.51162e-08
3.34442e-06
-9.7066e-08
3.36674e-06
-9.88604e-08
3.38942e-06
-1.00505e-07
3.41244e-06
-1.02004e-07
3.43575e-06
-1.03361e-07
3.45934e-06
-1.04581e-07
3.48316e-06
-1.05664e-07
3.50719e-06
-1.06614e-07
3.53139e-06
-1.07432e-07
3.55575e-06
-1.0812e-07
3.58022e-06
-1.0868e-07
3.60478e-06
-1.09112e-07
3.6294e-06
-1.09418e-07
3.65405e-06
-1.09599e-07
3.67871e-06
-1.09655e-07
3.70334e-06
-1.09586e-07
3.72791e-06
-1.09394e-07
3.75241e-06
-1.09078e-07
3.77679e-06
-1.08637e-07
3.80104e-06
-1.08072e-07
3.82512e-06
-1.07381e-07
3.849e-06
-1.06562e-07
3.87266e-06
-1.05614e-07
3.89607e-06
-1.04534e-07
3.91919e-06
-1.03318e-07
3.942e-06
-1.01963e-07
3.96445e-06
-1.00463e-07
3.98653e-06
-9.88109e-08
4.00819e-06
-9.70005e-08
4.0294e-06
-9.50226e-08
4.05012e-06
-9.28669e-08
4.0703e-06
-9.0521e-08
4.08991e-06
-8.79708e-08
4.1089e-06
-8.51996e-08
4.12721e-06
-8.21877e-08
4.1448e-06
-7.89123e-08
4.1616e-06
-7.53464e-08
4.17755e-06
-7.14585e-08
4.19257e-06
-6.72111e-08
4.2066e-06
-6.25601e-08
4.21953e-06
-5.74527e-08
4.23128e-06
-5.18259e-08
4.24173e-06
-4.56043e-08
4.25078e-06
-3.86963e-08
4.25828e-06
-3.09912e-08
4.26408e-06
-2.23536e-08
4.26803e-06
-1.26174e-08
4.26996e-06
-1.57938e-09
4.26966e-06
1.10105e-08
4.26697e-06
2.54612e-08
4.26169e-06
4.21633e-08
4.25371e-06
6.16016e-08
4.24298e-06
8.43742e-08
4.22961e-06
1.11211e-07
4.21402e-06
1.42979e-07
4.19714e-06
1.80669e-07
4.18069e-06
2.2531e-07
4.16757e-06
2.77766e-07
4.16231e-06
3.38278e-07
4.17102e-06
4.0558e-07
4.20009e-06
4.75327e-07
5.37986e-07
4.2507e-06
3.26682e-06
-1.36041e-08
3.27169e-06
-2.59022e-08
3.27863e-06
-3.65005e-08
3.28739e-06
-4.58157e-08
3.29777e-06
-5.41168e-08
3.30962e-06
-6.15881e-08
3.3228e-06
-6.83608e-08
3.33718e-06
-7.45368e-08
3.35266e-06
-8.01954e-08
3.36916e-06
-8.53997e-08
3.38659e-06
-9.02004e-08
3.40488e-06
-9.46395e-08
3.42397e-06
-9.87514e-08
3.44379e-06
-1.02565e-07
3.4643e-06
-1.06103e-07
3.48544e-06
-1.09387e-07
3.50717e-06
-1.12434e-07
3.52944e-06
-1.15256e-07
3.5522e-06
-1.17867e-07
3.57543e-06
-1.20276e-07
3.59908e-06
-1.22491e-07
3.62311e-06
-1.24519e-07
3.64749e-06
-1.26365e-07
3.67218e-06
-1.28036e-07
3.69716e-06
-1.29534e-07
3.72237e-06
-1.30863e-07
3.74781e-06
-1.32026e-07
3.77342e-06
-1.33025e-07
3.79918e-06
-1.33862e-07
3.82506e-06
-1.34539e-07
3.85102e-06
-1.35058e-07
3.87704e-06
-1.35419e-07
3.90309e-06
-1.35625e-07
3.92913e-06
-1.35675e-07
3.95513e-06
-1.35571e-07
3.98107e-06
-1.35313e-07
4.00691e-06
-1.34901e-07
4.03263e-06
-1.34335e-07
4.05819e-06
-1.33615e-07
4.08356e-06
-1.32738e-07
4.10872e-06
-1.31704e-07
4.13363e-06
-1.30509e-07
4.15827e-06
-1.29152e-07
4.18259e-06
-1.27627e-07
4.20658e-06
-1.2593e-07
4.23018e-06
-1.24054e-07
4.25338e-06
-1.21993e-07
4.27613e-06
-1.19738e-07
4.2984e-06
-1.17277e-07
4.32015e-06
-1.14599e-07
4.34133e-06
-1.1169e-07
4.36191e-06
-1.08533e-07
4.38183e-06
-1.05109e-07
4.40105e-06
-1.01394e-07
4.41951e-06
-9.73629e-08
4.43716e-06
-9.29844e-08
4.45394e-06
-8.82226e-08
4.46978e-06
-8.30352e-08
4.4846e-06
-7.73728e-08
4.49833e-06
-7.1177e-08
4.5109e-06
-6.43787e-08
4.5222e-06
-5.68963e-08
4.53215e-06
-4.86324e-08
4.54064e-06
-3.94711e-08
4.54756e-06
-2.92735e-08
4.55283e-06
-1.78735e-08
4.55633e-06
-5.07275e-09
4.55799e-06
9.36256e-09
4.55775e-06
2.57079e-08
4.55562e-06
4.42962e-08
4.55172e-06
6.55184e-08
4.54627e-06
8.98233e-08
4.53978e-06
1.1771e-07
4.53306e-06
1.49705e-07
4.52743e-06
1.8631e-07
4.52485e-06
2.27896e-07
4.5281e-06
2.74523e-07
4.54076e-06
3.25625e-07
4.56681e-06
3.79533e-07
4.6093e-06
4.32844e-07
4.79932e-07
4.66736e-06
3.49554e-06
-1.6132e-08
3.50061e-06
-3.09785e-08
3.50788e-06
-4.3762e-08
3.51708e-06
-5.50174e-08
3.52803e-06
-6.50514e-08
3.54052e-06
-7.40808e-08
3.55444e-06
-8.22639e-08
3.56963e-06
-8.97234e-08
3.586e-06
-9.65554e-08
3.60345e-06
-1.02836e-07
3.62189e-06
-1.08628e-07
3.64124e-06
-1.1398e-07
3.66144e-06
-1.18936e-07
3.68242e-06
-1.2353e-07
3.70412e-06
-1.2779e-07
3.72649e-06
-1.31741e-07
3.74948e-06
-1.35404e-07
3.77304e-06
-1.38796e-07
3.79712e-06
-1.41931e-07
3.82168e-06
-1.4482e-07
3.84668e-06
-1.47475e-07
3.87209e-06
-1.49903e-07
3.89785e-06
-1.52112e-07
3.92395e-06
-1.54107e-07
3.95032e-06
-1.55892e-07
3.97695e-06
-1.57474e-07
4.0038e-06
-1.58853e-07
4.03083e-06
-1.60035e-07
4.05801e-06
-1.6102e-07
4.08531e-06
-1.61812e-07
4.11268e-06
-1.62412e-07
4.1401e-06
-1.62822e-07
4.16754e-06
-1.63043e-07
4.19497e-06
-1.63077e-07
4.22234e-06
-1.62925e-07
4.24963e-06
-1.62586e-07
4.27681e-06
-1.62062e-07
4.30385e-06
-1.61353e-07
4.33071e-06
-1.60457e-07
4.35737e-06
-1.59373e-07
4.38378e-06
-1.581e-07
4.40993e-06
-1.56635e-07
4.43577e-06
-1.54974e-07
4.46127e-06
-1.53113e-07
4.4864e-06
-1.51046e-07
4.51113e-06
-1.48767e-07
4.53542e-06
-1.46266e-07
4.55924e-06
-1.43535e-07
4.58254e-06
-1.40562e-07
4.60529e-06
-1.37332e-07
4.62744e-06
-1.3383e-07
4.64896e-06
-1.30037e-07
4.6698e-06
-1.25933e-07
4.68991e-06
-1.21491e-07
4.70924e-06
-1.16683e-07
4.72775e-06
-1.11476e-07
4.74537e-06
-1.0583e-07
4.76204e-06
-9.97012e-08
4.77772e-06
-9.3037e-08
4.79233e-06
-8.57766e-08
4.80581e-06
-7.78494e-08
4.8181e-06
-6.91729e-08
4.82913e-06
-5.96509e-08
4.83884e-06
-4.91713e-08
4.84718e-06
-3.76033e-08
4.85411e-06
-2.4795e-08
4.85962e-06
-1.05712e-08
4.86372e-06
5.26687e-09
4.8665e-06
2.29368e-08
4.86812e-06
4.26844e-08
4.86887e-06
6.47804e-08
4.8692e-06
8.95058e-08
4.86978e-06
1.17132e-07
4.87161e-06
1.47885e-07
4.87603e-06
1.81894e-07
4.88483e-06
2.19106e-07
4.9002e-06
2.59163e-07
4.92459e-06
3.01238e-07
4.96029e-06
3.43838e-07
5.00852e-06
3.84627e-07
4.2045e-07
5.06801e-06
3.74027e-06
-1.87367e-08
3.74555e-06
-3.62579e-08
3.75314e-06
-5.13497e-08
3.76279e-06
-6.46614e-08
3.77428e-06
-7.65372e-08
3.78743e-06
-8.72241e-08
3.80208e-06
-9.69073e-08
3.8181e-06
-1.05732e-07
3.83537e-06
-1.13811e-07
3.85378e-06
-1.21235e-07
3.87324e-06
-1.28077e-07
3.89367e-06
-1.34398e-07
3.91499e-06
-1.40246e-07
3.93714e-06
-1.45664e-07
3.96006e-06
-1.50686e-07
3.98367e-06
-1.55341e-07
4.00794e-06
-1.59652e-07
4.0328e-06
-1.63641e-07
4.05822e-06
-1.67324e-07
4.08413e-06
-1.70716e-07
4.11051e-06
-1.73829e-07
4.1373e-06
-1.76673e-07
4.16446e-06
-1.79256e-07
4.19196e-06
-1.81584e-07
4.21975e-06
-1.83665e-07
4.2478e-06
-1.85503e-07
4.27607e-06
-1.87101e-07
4.30453e-06
-1.88464e-07
4.33312e-06
-1.89595e-07
4.36183e-06
-1.90497e-07
4.39061e-06
-1.91171e-07
4.41943e-06
-1.9162e-07
4.44826e-06
-1.91845e-07
4.47705e-06
-1.91849e-07
4.50578e-06
-1.91633e-07
4.53441e-06
-1.91197e-07
4.56291e-06
-1.90542e-07
4.59125e-06
-1.89667e-07
4.61939e-06
-1.88574e-07
4.64729e-06
-1.87259e-07
4.67493e-06
-1.85722e-07
4.70228e-06
-1.83959e-07
4.72929e-06
-1.81967e-07
4.75594e-06
-1.79742e-07
4.78219e-06
-1.77276e-07
4.808e-06
-1.74563e-07
4.83335e-06
-1.71593e-07
4.85819e-06
-1.68357e-07
4.88248e-06
-1.64841e-07
4.9062e-06
-1.61031e-07
4.92929e-06
-1.5691e-07
4.95173e-06
-1.52458e-07
4.97347e-06
-1.47652e-07
4.99446e-06
-1.42466e-07
5.01466e-06
-1.3687e-07
5.03403e-06
-1.3083e-07
5.05252e-06
-1.24306e-07
5.07008e-06
-1.17252e-07
5.08667e-06
-1.09618e-07
5.10225e-06
-1.01342e-07
5.11677e-06
-9.23587e-08
5.1302e-06
-8.25895e-08
5.14251e-06
-7.19467e-08
5.15368e-06
-6.03304e-08
5.16371e-06
-4.76282e-08
5.17264e-06
-3.37145e-08
5.18053e-06
-1.84502e-08
5.1875e-06
-1.68501e-09
5.19371e-06
1.67356e-08
5.19945e-06
3.69544e-08
5.20511e-06
5.91236e-08
5.21125e-06
8.33717e-08
5.21861e-06
1.09784e-07
5.22813e-06
1.38372e-07
5.241e-06
1.69031e-07
5.25862e-06
2.01493e-07
5.28254e-06
2.35256e-07
5.31426e-06
2.69525e-07
5.35495e-06
3.03158e-07
5.40492e-06
3.34658e-07
3.62298e-07
5.46308e-06
4.00213e-06
-2.14216e-08
4.00762e-06
-4.17376e-08
4.01553e-06
-5.92604e-08
4.02562e-06
-7.47435e-08
4.03766e-06
-8.85705e-08
4.05146e-06
-1.01015e-07
4.06685e-06
-1.12291e-07
4.08369e-06
-1.22564e-07
4.10186e-06
-1.31965e-07
4.12123e-06
-1.40601e-07
4.14173e-06
-1.48556e-07
4.16324e-06
-1.559e-07
4.1857e-06
-1.62691e-07
4.20903e-06
-1.68978e-07
4.23317e-06
-1.74802e-07
4.25804e-06
-1.80195e-07
4.28359e-06
-1.85186e-07
4.30977e-06
-1.898e-07
4.33652e-06
-1.94056e-07
4.3638e-06
-1.9797e-07
4.39155e-06
-2.01558e-07
4.41973e-06
-2.04831e-07
4.4483e-06
-2.07799e-07
4.4772e-06
-2.1047e-07
4.50641e-06
-2.1285e-07
4.53588e-06
-2.14947e-07
4.56557e-06
-2.16764e-07
4.59543e-06
-2.18306e-07
4.62544e-06
-2.19577e-07
4.65554e-06
-2.2058e-07
4.68572e-06
-2.21318e-07
4.71591e-06
-2.21794e-07
4.7461e-06
-2.2201e-07
4.77624e-06
-2.21967e-07
4.8063e-06
-2.21669e-07
4.83624e-06
-2.21115e-07
4.86603e-06
-2.20306e-07
4.89563e-06
-2.19244e-07
4.92501e-06
-2.17928e-07
4.95413e-06
-2.16356e-07
4.98295e-06
-2.14527e-07
5.01145e-06
-2.12439e-07
5.03959e-06
-2.10087e-07
5.06734e-06
-2.07467e-07
5.09466e-06
-2.04573e-07
5.12151e-06
-2.01397e-07
5.14787e-06
-1.97929e-07
5.17369e-06
-1.9416e-07
5.19894e-06
-1.90075e-07
5.22359e-06
-1.8566e-07
5.24759e-06
-1.80898e-07
5.27092e-06
-1.75768e-07
5.29353e-06
-1.70248e-07
5.31539e-06
-1.64311e-07
5.33647e-06
-1.57928e-07
5.35672e-06
-1.51064e-07
5.37611e-06
-1.43683e-07
5.39461e-06
-1.35741e-07
5.4122e-06
-1.27189e-07
5.42884e-06
-1.17974e-07
5.44453e-06
-1.08035e-07
5.45926e-06
-9.73058e-08
5.47304e-06
-8.57118e-08
5.48589e-06
-7.31727e-08
5.49788e-06
-5.96017e-08
5.50908e-06
-4.49068e-08
5.51963e-06
-2.89925e-08
5.52972e-06
-1.17631e-08
5.5396e-06
6.87303e-09
5.54958e-06
2.69761e-08
5.56013e-06
4.85869e-08
5.57179e-06
7.17177e-08
5.58526e-06
9.63261e-08
5.60135e-06
1.22294e-07
5.62098e-06
1.49406e-07
5.64516e-06
1.77321e-07
5.67488e-06
2.05551e-07
5.71096e-06
2.33446e-07
5.75393e-06
2.60202e-07
5.80369e-06
2.84897e-07
3.06596e-07
5.8594e-06
4.28234e-06
-2.41898e-08
4.28802e-06
-4.74154e-08
4.29625e-06
-6.749e-08
4.30677e-06
-8.52584e-08
4.31935e-06
-1.01145e-07
4.3338e-06
-1.15449e-07
4.34992e-06
-1.2841e-07
4.36759e-06
-1.40215e-07
4.38665e-06
-1.51016e-07
4.40699e-06
-1.60932e-07
4.42852e-06
-1.70062e-07
4.45112e-06
-1.78486e-07
4.47471e-06
-1.86271e-07
4.49923e-06
-1.93472e-07
4.52458e-06
-2.00137e-07
4.55071e-06
-2.06304e-07
4.57755e-06
-2.12006e-07
4.60504e-06
-2.17271e-07
4.63313e-06
-2.22122e-07
4.66176e-06
-2.26578e-07
4.69088e-06
-2.30657e-07
4.72045e-06
-2.34371e-07
4.7504e-06
-2.37733e-07
4.78071e-06
-2.40751e-07
4.81132e-06
-2.43434e-07
4.84219e-06
-2.45789e-07
4.87327e-06
-2.47822e-07
4.90453e-06
-2.49538e-07
4.93592e-06
-2.50941e-07
4.9674e-06
-2.52035e-07
4.99893e-06
-2.52825e-07
5.03047e-06
-2.53313e-07
5.06199e-06
-2.53501e-07
5.09344e-06
-2.53393e-07
5.12479e-06
-2.52991e-07
5.15599e-06
-2.52296e-07
5.18702e-06
-2.51311e-07
5.21784e-06
-2.50035e-07
5.2484e-06
-2.48468e-07
5.27868e-06
-2.46612e-07
5.30864e-06
-2.44463e-07
5.33824e-06
-2.42019e-07
5.36746e-06
-2.39278e-07
5.39625e-06
-2.36234e-07
5.42458e-06
-2.32882e-07
5.45241e-06
-2.29214e-07
5.47973e-06
-2.25221e-07
5.50648e-06
-2.20892e-07
5.53264e-06
-2.16216e-07
5.55818e-06
-2.11177e-07
5.58305e-06
-2.05758e-07
5.60725e-06
-1.9994e-07
5.63072e-06
-1.93701e-07
5.65344e-06
-1.87017e-07
5.67539e-06
-1.7986e-07
5.69654e-06
-1.72199e-07
5.71687e-06
-1.63999e-07
5.73637e-06
-1.55224e-07
5.75503e-06
-1.4583e-07
5.77284e-06
-1.35773e-07
5.78982e-06
-1.25004e-07
5.806e-06
-1.13469e-07
5.82142e-06
-1.01115e-07
5.83614e-06
-8.78839e-08
5.85027e-06
-7.3718e-08
5.86394e-06
-5.85618e-08
5.87732e-06
-4.23641e-08
5.89065e-06
-2.50811e-08
5.90421e-06
-6.67835e-09
5.91835e-06
1.28499e-08
5.93349e-06
3.34616e-08
5.95013e-06
5.50872e-08
5.96885e-06
7.76118e-08
5.9903e-06
1.00859e-07
6.01513e-06
1.24582e-07
6.04401e-06
1.48453e-07
6.0775e-06
1.72064e-07
6.11603e-06
1.9493e-07
6.15973e-06
2.16511e-07
6.20838e-06
2.36253e-07
2.53653e-07
6.26133e-06
4.58216e-06
-2.70437e-08
4.58804e-06
-5.32886e-08
4.59659e-06
-7.60334e-08
4.60753e-06
-9.61989e-08
4.62065e-06
-1.14252e-07
4.63572e-06
-1.30516e-07
4.65258e-06
-1.45254e-07
4.67105e-06
-1.58677e-07
4.691e-06
-1.70954e-07
4.7123e-06
-1.8222e-07
4.73484e-06
-1.92588e-07
4.75852e-06
-2.02147e-07
4.78325e-06
-2.10976e-07
4.80893e-06
-2.19136e-07
4.83549e-06
-2.26681e-07
4.86287e-06
-2.33656e-07
4.89098e-06
-2.40098e-07
4.91977e-06
-2.4604e-07
4.94918e-06
-2.51507e-07
4.97915e-06
-2.56523e-07
5.00963e-06
-2.61106e-07
5.04055e-06
-2.65271e-07
5.07188e-06
-2.69033e-07
5.10356e-06
-2.72402e-07
5.13554e-06
-2.75388e-07
5.16777e-06
-2.77999e-07
5.20022e-06
-2.80242e-07
5.23283e-06
-2.82123e-07
5.26557e-06
-2.83647e-07
5.29838e-06
-2.8482e-07
5.33123e-06
-2.85645e-07
5.36407e-06
-2.86126e-07
5.39686e-06
-2.86268e-07
5.42957e-06
-2.86072e-07
5.46215e-06
-2.85543e-07
5.49456e-06
-2.84683e-07
5.52677e-06
-2.83493e-07
5.55874e-06
-2.81975e-07
5.59042e-06
-2.80131e-07
5.6218e-06
-2.77959e-07
5.65282e-06
-2.7546e-07
5.68346e-06
-2.72631e-07
5.71367e-06
-2.6947e-07
5.74344e-06
-2.65973e-07
5.77271e-06
-2.62135e-07
5.80147e-06
-2.57949e-07
5.82968e-06
-2.53406e-07
5.8573e-06
-2.48497e-07
5.88432e-06
-2.43211e-07
5.9107e-06
-2.37533e-07
5.93641e-06
-2.3145e-07
5.96143e-06
-2.24942e-07
5.98574e-06
-2.17992e-07
6.00932e-06
-2.10576e-07
6.03215e-06
-2.02672e-07
6.05422e-06
-1.94253e-07
6.07553e-06
-1.85291e-07
6.09608e-06
-1.75754e-07
6.11588e-06
-1.65611e-07
6.13495e-06
-1.54828e-07
6.15333e-06
-1.43369e-07
6.17107e-06
-1.31199e-07
6.18825e-06
-1.18283e-07
6.20497e-06
-1.04589e-07
6.22136e-06
-9.00894e-08
6.23757e-06
-7.47619e-08
6.25382e-06
-5.85944e-08
6.27033e-06
-4.15874e-08
6.28743e-06
-2.37563e-08
6.30542e-06
-5.13018e-09
6.32467e-06
1.42181e-08
6.3456e-06
3.41663e-08
6.36866e-06
5.45635e-08
6.39431e-06
7.52224e-08
6.42299e-06
9.59116e-08
6.4551e-06
1.16355e-07
6.49094e-06
1.36239e-07
6.53066e-06
1.55221e-07
6.57422e-06
1.72953e-07
6.62138e-06
1.89104e-07
2.0341e-07
6.67163e-06
4.90298e-06
-2.99844e-08
4.90905e-06
-5.93534e-08
4.9179e-06
-8.48832e-08
4.92926e-06
-1.07555e-07
4.9429e-06
-1.27879e-07
4.95859e-06
-1.46202e-07
4.97616e-06
-1.62808e-07
4.99543e-06
-1.77932e-07
5.01625e-06
-1.9176e-07
5.03849e-06
-2.04446e-07
5.06203e-06
-2.16113e-07
5.08677e-06
-2.26864e-07
5.11259e-06
-2.36785e-07
5.13943e-06
-2.45947e-07
5.16718e-06
-2.54411e-07
5.19577e-06
-2.62227e-07
5.22513e-06
-2.69438e-07
5.2552e-06
-2.7608e-07
5.2859e-06
-2.82182e-07
5.31717e-06
-2.87772e-07
5.34897e-06
-2.9287e-07
5.38122e-06
-2.97494e-07
5.41387e-06
-3.0166e-07
5.44688e-06
-3.0538e-07
5.48018e-06
-3.08666e-07
5.51374e-06
-3.11528e-07
5.5475e-06
-3.13972e-07
5.58141e-06
-3.16007e-07
5.61543e-06
-3.17639e-07
5.64952e-06
-3.18873e-07
5.68362e-06
-3.19714e-07
5.71769e-06
-3.20169e-07
5.75169e-06
-3.2024e-07
5.78558e-06
-3.19933e-07
5.81932e-06
-3.19251e-07
5.85286e-06
-3.18197e-07
5.88617e-06
-3.16774e-07
5.91921e-06
-3.14985e-07
5.95193e-06
-3.12832e-07
5.98432e-06
-3.10315e-07
6.01632e-06
-3.07435e-07
6.04791e-06
-3.04191e-07
6.07904e-06
-3.00582e-07
6.1097e-06
-2.96604e-07
6.13984e-06
-2.92253e-07
6.16944e-06
-2.87525e-07
6.19847e-06
-2.82412e-07
6.22691e-06
-2.76906e-07
6.25472e-06
-2.70998e-07
6.28188e-06
-2.64676e-07
6.30838e-06
-2.57928e-07
6.3342e-06
-2.50739e-07
6.35932e-06
-2.43094e-07
6.38374e-06
-2.34975e-07
6.40745e-06
-2.26364e-07
6.43046e-06
-2.1724e-07
6.45277e-06
-2.07584e-07
6.47441e-06
-1.97373e-07
6.4954e-06
-1.86586e-07
6.51579e-06
-1.75202e-07
6.53564e-06
-1.63201e-07
6.55502e-06
-1.50565e-07
6.57404e-06
-1.3728e-07
6.5928e-06
-1.23337e-07
6.61146e-06
-1.08733e-07
6.63019e-06
-9.34757e-08
6.64919e-06
-7.75834e-08
6.6687e-06
-6.10884e-08
6.689e-06
-4.40392e-08
6.71038e-06
-2.65004e-08
6.73316e-06
-8.54831e-09
6.75764e-06
9.69994e-09
6.78413e-06
2.80865e-08
6.81294e-06
4.64225e-08
6.84435e-06
6.45168e-08
6.87856e-06
8.21527e-08
6.91571e-06
9.91014e-08
6.95581e-06
1.15132e-07
6.99875e-06
1.30023e-07
7.04428e-06
1.43584e-07
1.55677e-07
7.09203e-06
5.24626e-06
-3.30117e-08
5.25251e-06
-6.56043e-08
5.26166e-06
-9.40292e-08
5.27343e-06
-1.19313e-07
5.28756e-06
-1.42009e-07
5.30386e-06
-1.62485e-07
5.32211e-06
-1.81048e-07
5.34215e-06
-1.97954e-07
5.36381e-06
-2.13409e-07
5.38696e-06
-2.27581e-07
5.41147e-06
-2.40608e-07
5.43723e-06
-2.52604e-07
5.46413e-06
-2.63664e-07
5.49208e-06
-2.7387e-07
5.52098e-06
-2.83289e-07
5.55075e-06
-2.91976e-07
5.58132e-06
-2.99981e-07
5.61261e-06
-3.07344e-07
5.64455e-06
-3.14098e-07
5.67708e-06
-3.20274e-07
5.71014e-06
-3.25895e-07
5.74366e-06
-3.30982e-07
5.77758e-06
-3.35553e-07
5.81185e-06
-3.39623e-07
5.84642e-06
-3.43203e-07
5.88123e-06
-3.46305e-07
5.91623e-06
-3.4894e-07
5.95137e-06
-3.51114e-07
5.98659e-06
-3.52835e-07
6.02187e-06
-3.54111e-07
6.05713e-06
-3.54948e-07
6.09234e-06
-3.55352e-07
6.12746e-06
-3.55327e-07
6.16244e-06
-3.54881e-07
6.19724e-06
-3.54017e-07
6.23181e-06
-3.5274e-07
6.26613e-06
-3.51054e-07
6.30013e-06
-3.48963e-07
6.3338e-06
-3.4647e-07
6.36709e-06
-3.43577e-07
6.39998e-06
-3.40287e-07
6.43241e-06
-3.36598e-07
6.46437e-06
-3.32512e-07
6.49582e-06
-3.28028e-07
6.52674e-06
-3.23142e-07
6.55709e-06
-3.17852e-07
6.58686e-06
-3.12153e-07
6.61602e-06
-3.0604e-07
6.64455e-06
-2.99504e-07
6.67244e-06
-2.92539e-07
6.69967e-06
-2.85136e-07
6.72624e-06
-2.77283e-07
6.75214e-06
-2.68971e-07
6.77737e-06
-2.60187e-07
6.80195e-06
-2.5092e-07
6.82589e-06
-2.41157e-07
6.84921e-06
-2.30886e-07
6.87195e-06
-2.20096e-07
6.89416e-06
-2.08776e-07
6.9159e-06
-1.9692e-07
6.93724e-06
-1.84521e-07
6.95827e-06
-1.71579e-07
6.97911e-06
-1.58097e-07
6.99987e-06
-1.44087e-07
7.02072e-06
-1.29566e-07
7.04183e-06
-1.14562e-07
7.06337e-06
-9.91148e-08
7.08558e-06
-8.32764e-08
7.10866e-06
-6.71126e-08
7.13288e-06
-5.07036e-08
7.15849e-06
-3.41419e-08
7.18573e-06
-1.75269e-08
7.2148e-06
-9.72402e-10
7.24588e-06
1.5359e-08
7.2791e-06
3.131e-08
7.31456e-06
4.67048e-08
7.35229e-06
6.13868e-08
7.39223e-06
7.52041e-08
7.43424e-06
8.80186e-08
7.47812e-06
9.97216e-08
1.10248e-07
7.52356e-06
5.61357e-06
-3.61234e-08
5.62e-06
-7.20332e-08
5.62943e-06
-1.03457e-07
5.64158e-06
-1.31453e-07
5.65619e-06
-1.56616e-07
5.67306e-06
-1.79337e-07
5.69196e-06
-1.99943e-07
5.71273e-06
-2.18709e-07
5.7352e-06
-2.35861e-07
5.75922e-06
-2.51583e-07
5.78466e-06
-2.66027e-07
5.81139e-06
-2.79318e-07
5.83932e-06
-2.91563e-07
5.86832e-06
-3.02851e-07
5.89831e-06
-3.13257e-07
5.92921e-06
-3.22844e-07
5.96092e-06
-3.31665e-07
5.99337e-06
-3.39766e-07
6.02649e-06
-3.47186e-07
6.0602e-06
-3.53957e-07
6.09444e-06
-3.60106e-07
6.12915e-06
-3.65658e-07
6.16426e-06
-3.70631e-07
6.19971e-06
-3.75042e-07
6.23545e-06
-3.78908e-07
6.27142e-06
-3.82239e-07
6.30756e-06
-3.85047e-07
6.34382e-06
-3.87342e-07
6.38015e-06
-3.89133e-07
6.4165e-06
-3.90428e-07
6.45282e-06
-3.91235e-07
6.48907e-06
-3.91561e-07
6.52519e-06
-3.91413e-07
6.56114e-06
-3.90798e-07
6.59688e-06
-3.89722e-07
6.63236e-06
-3.88191e-07
6.66755e-06
-3.8621e-07
6.70241e-06
-3.83786e-07
6.73689e-06
-3.80922e-07
6.77097e-06
-3.77622e-07
6.8046e-06
-3.73891e-07
6.83777e-06
-3.69731e-07
6.87043e-06
-3.65144e-07
6.90256e-06
-3.6013e-07
6.93414e-06
-3.5469e-07
6.96514e-06
-3.48824e-07
6.99554e-06
-3.42529e-07
7.02533e-06
-3.35803e-07
7.0545e-06
-3.28643e-07
7.08303e-06
-3.21044e-07
7.11092e-06
-3.13003e-07
7.13818e-06
-3.04513e-07
7.1648e-06
-2.95571e-07
7.19081e-06
-2.8617e-07
7.21622e-06
-2.76306e-07
7.24106e-06
-2.65975e-07
7.26537e-06
-2.55175e-07
7.2892e-06
-2.43903e-07
7.31261e-06
-2.32161e-07
7.33566e-06
-2.19954e-07
7.35845e-06
-2.0729e-07
7.38107e-06
-1.94181e-07
7.40364e-06
-1.80647e-07
7.42629e-06
-1.66713e-07
7.44915e-06
-1.5241e-07
7.47239e-06
-1.37781e-07
7.49617e-06
-1.22877e-07
7.52067e-06
-1.07758e-07
7.54607e-06
-9.24966e-08
7.57255e-06
-7.71731e-08
7.6003e-06
-6.18781e-08
7.6295e-06
-4.6709e-08
7.66031e-06
-3.17681e-08
7.69283e-06
-1.71488e-08
7.72712e-06
-2.96046e-09
7.76316e-06
1.0672e-08
7.80093e-06
2.36319e-08
7.84034e-06
3.58139e-08
7.88124e-06
4.71273e-08
7.92346e-06
5.75148e-08
6.6951e-08
7.96677e-06
6.00659e-06
-3.9315e-08
6.01319e-06
-7.86284e-08
6.02288e-06
-1.13146e-07
6.03538e-06
-1.43949e-07
6.05045e-06
-1.71669e-07
6.06784e-06
-1.9672e-07
6.08736e-06
-2.19447e-07
6.10881e-06
-2.40146e-07
6.13203e-06
-2.59062e-07
6.15686e-06
-2.76394e-07
6.18316e-06
-2.92307e-07
6.21081e-06
-3.06941e-07
6.23968e-06
-3.20411e-07
6.26967e-06
-3.32816e-07
6.30068e-06
-3.44238e-07
6.33261e-06
-3.54748e-07
6.36538e-06
-3.64404e-07
6.3989e-06
-3.73258e-07
6.4331e-06
-3.81352e-07
6.4679e-06
-3.88723e-07
6.50322e-06
-3.95401e-07
6.53901e-06
-4.01413e-07
6.5752e-06
-4.06781e-07
6.61171e-06
-4.11525e-07
6.6485e-06
-4.15662e-07
6.68551e-06
-4.19205e-07
6.72266e-06
-4.22168e-07
6.75992e-06
-4.24563e-07
6.79722e-06
-4.26399e-07
6.83452e-06
-4.27687e-07
6.87176e-06
-4.28437e-07
6.90889e-06
-4.28656e-07
6.94587e-06
-4.28354e-07
6.98264e-06
-4.27538e-07
7.01917e-06
-4.26217e-07
7.05542e-06
-4.244e-07
7.09134e-06
-4.22092e-07
7.12689e-06
-4.19302e-07
7.16204e-06
-4.16036e-07
7.19675e-06
-4.12301e-07
7.231e-06
-4.08102e-07
7.26474e-06
-4.03445e-07
7.29797e-06
-3.98334e-07
7.33064e-06
-3.92772e-07
7.36275e-06
-3.86764e-07
7.39427e-06