/*--------------------------------*- C++ -*----------------------------------*\
| =========                 |                                                 |
| \\      /  F ield         | OpenFOAM: The Open Source CFD Toolbox           |
|  \\    /   O peration     | Version:  2112                                  |
|   \\  /    A nd           | Website:  www.openfoam.com                      |
|    \\/     M anipulation  |                                                 |
\*---------------------------------------------------------------------------*/
FoamFile
{
    version     2.0;
    format      ascii;
    arch        "LSB;label=32;scalar=64";
    class       volScalarField;
    location    "4";
    object      T;
}
// * * * * * * * * * * * * * * * * * * * * * * * * * * * * * * * * * * * * * //

dimensions      [0 0 0 1 0 0 0];

internalField   nonuniform List<scalar> 
12013
(
300.003
300.008
300.014
300.02
300.026
300.032
300.039
300.046
300.054
300.061
300.07
300.078
300.087
300.096
300.106
300.116
300.127
300.138
300.15
300.162
300.174
300.188
300.201
300.215
300.23
300.246
300.261
300.278
300.295
300.313
300.331
300.35
300.37
300.39
300.411
300.433
300.455
300.478
300.502
300.527
300.552
300.578
300.605
300.633
300.662
300.691
300.721
300.753
300.785
300.818
300.851
300.886
300.922
300.959
300.997
301.036
301.076
301.117
301.159
301.202
301.247
301.293
301.341
301.389
301.44
301.492
301.545
301.601
301.658
301.717
301.779
301.843
301.91
301.98
302.053
302.13
302.212
302.3
302.396
302.502
302.625
300.003
300.008
300.014
300.02
300.026
300.032
300.039
300.046
300.054
300.061
300.07
300.078
300.087
300.096
300.106
300.116
300.127
300.138
300.15
300.162
300.174
300.188
300.201
300.215
300.23
300.245
300.261
300.278
300.295
300.313
300.331
300.35
300.37
300.39
300.411
300.433
300.455
300.478
300.502
300.527
300.552
300.578
300.605
300.633
300.662
300.691
300.721
300.752
300.784
300.817
300.851
300.886
300.922
300.959
300.996
301.035
301.075
301.116
301.159
301.202
301.247
301.293
301.34
301.389
301.439
301.491
301.544
301.6
301.657
301.716
301.777
301.841
301.908
301.977
302.05
302.126
302.207
302.294
302.386
302.487
302.597
300.003
300.008
300.014
300.02
300.026
300.032
300.039
300.046
300.054
300.061
300.07
300.078
300.087
300.096
300.106
300.116
300.127
300.138
300.15
300.162
300.174
300.188
300.201
300.215
300.23
300.245
300.261
300.278
300.295
300.313
300.331
300.35
300.37
300.39
300.411
300.433
300.455
300.478
300.502
300.527
300.552
300.578
300.605
300.633
300.661
300.691
300.721
300.752
300.784
300.817
300.851
300.886
300.921
300.958
300.996
301.035
301.075
301.116
301.158
301.201
301.246
301.292
301.339
301.388
301.438
301.489
301.543
301.598
301.654
301.713
301.774
301.838
301.903
301.972
302.043
302.118
302.197
302.28
302.368
302.461
302.558
300.003
300.008
300.014
300.02
300.026
300.032
300.039
300.046
300.054
300.061
300.07
300.078
300.087
300.096
300.106
300.116
300.127
300.138
300.15
300.162
300.174
300.187
300.201
300.215
300.23
300.245
300.261
300.278
300.295
300.313
300.331
300.35
300.37
300.39
300.411
300.433
300.455
300.478
300.502
300.527
300.552
300.578
300.605
300.633
300.661
300.69
300.721
300.752
300.784
300.817
300.85
300.885
300.921
300.957
300.995
301.034
301.074
301.115
301.157
301.2
301.244
301.29
301.337
301.385
301.435
301.487
301.54
301.594
301.651
301.709
301.769
301.831
301.896
301.963
302.033
302.106
302.182
302.261
302.343
302.428
302.514
300.003
300.008
300.014
300.02
300.026
300.032
300.039
300.046
300.054
300.061
300.07
300.078
300.087
300.096
300.106
300.116
300.127
300.138
300.15
300.162
300.174
300.187
300.201
300.215
300.23
300.245
300.261
300.278
300.295
300.312
300.331
300.35
300.369
300.39
300.411
300.432
300.455
300.478
300.502
300.526
300.552
300.578
300.604
300.632
300.661
300.69
300.72
300.751
300.783
300.816
300.849
300.884
300.92
300.956
300.994
301.032
301.072
301.113
301.155
301.198
301.242
301.287
301.334
301.382
301.432
301.483
301.535
301.589
301.645
301.702
301.762
301.823
301.886
301.951
302.019
302.089
302.161
302.236
302.312
302.39
302.468
300.003
300.008
300.014
300.02
300.026
300.032
300.039
300.046
300.054
300.061
300.07
300.078
300.087
300.096
300.106
300.116
300.127
300.138
300.15
300.162
300.174
300.187
300.201
300.215
300.23
300.245
300.261
300.278
300.295
300.312
300.331
300.35
300.369
300.389
300.41
300.432
300.454
300.477
300.501
300.526
300.551
300.577
300.604
300.632
300.66
300.689
300.719
300.75
300.782
300.815
300.848
300.883
300.918
300.955
300.992
301.031
301.07
301.111
301.152
301.195
301.239
301.284
301.33
301.378
301.427
301.477
301.529
301.582
301.637
301.693
301.752
301.811
301.873
301.936
302.001
302.068
302.136
302.206
302.277
302.349
302.42
300.003
300.008
300.014
300.02
300.026
300.032
300.039
300.046
300.054
300.061
300.069
300.078
300.087
300.096
300.106
300.116
300.127
300.138
300.149
300.162
300.174
300.187
300.201
300.215
300.23
300.245
300.261
300.277
300.294
300.312
300.33
300.349
300.369
300.389
300.41
300.432
300.454
300.477
300.501
300.525
300.55
300.576
300.603
300.631
300.659
300.688
300.718
300.749
300.781
300.813
300.847
300.881
300.916
300.953
300.99
301.028
301.067
301.108
301.149
301.191
301.235
301.279
301.325
301.372
301.421
301.47
301.521
301.574
301.627
301.682
301.739
301.797
301.856
301.917
301.979
302.043
302.107
302.173
302.239
302.304
302.37
300.003
300.008
300.014
300.02
300.026
300.032
300.039
300.046
300.054
300.061
300.069
300.078
300.087
300.096
300.106
300.116
300.127
300.138
300.149
300.161
300.174
300.187
300.201
300.215
300.229
300.245
300.261
300.277
300.294
300.312
300.33
300.349
300.368
300.389
300.41
300.431
300.453
300.476
300.5
300.524
300.55
300.575
300.602
300.63
300.658
300.687
300.717
300.747
300.779
300.811
300.845
300.879
300.914
300.95
300.987
301.025
301.064
301.104
301.145
301.187
301.23
301.274
301.319
301.365
301.413
301.462
301.511
301.563
301.615
301.668
301.723
301.779
301.836
301.895
301.954
302.014
302.075
302.136
302.197
302.258
302.318
300.003
300.008
300.014
300.02
300.026
300.032
300.039
300.046
300.053
300.061
300.069
300.078
300.087
300.096
300.106
300.116
300.127
300.138
300.149
300.161
300.174
300.187
300.2
300.215
300.229
300.244
300.26
300.277
300.294
300.311
300.33
300.348
300.368
300.388
300.409
300.43
300.453
300.475
300.499
300.523
300.548
300.574
300.601
300.628
300.656
300.685
300.715
300.745
300.777
300.809
300.842
300.876
300.911
300.947
300.983
301.021
301.059
301.099
301.139
301.181
301.223
301.267
301.311
301.357
301.403
301.451
301.5
301.549
301.6
301.652
301.705
301.759
301.813
301.869
301.925
301.982
302.039
302.096
302.153
302.209
302.265
300.003
300.008
300.014
300.02
300.026
300.032
300.039
300.046
300.053
300.061
300.069
300.078
300.087
300.096
300.106
300.116
300.126
300.137
300.149
300.161
300.174
300.187
300.2
300.214
300.229
300.244
300.26
300.276
300.293
300.311
300.329
300.348
300.367
300.387
300.408
300.43
300.452
300.474
300.498
300.522
300.547
300.573
300.599
300.626
300.654
300.683
300.713
300.743
300.774
300.806
300.839
300.873
300.907
300.942
300.979
301.016
301.054
301.093
301.133
301.173
301.215
301.258
301.301
301.346
301.392
301.438
301.485
301.534
301.583
301.633
301.683
301.735
301.787
301.84
301.893
301.946
302
302.053
302.106
302.158
302.21
300.003
300.008
300.014
300.02
300.026
300.032
300.039
300.046
300.053
300.061
300.069
300.078
300.087
300.096
300.106
300.116
300.126
300.137
300.149
300.161
300.173
300.186
300.2
300.214
300.228
300.244
300.259
300.276
300.293
300.31
300.328
300.347
300.366
300.386
300.407
300.428
300.45
300.473
300.497
300.521
300.546
300.571
300.597
300.624
300.652
300.681
300.71
300.74
300.771
300.803
300.835
300.868
300.902
300.937
300.973
301.01
301.047
301.086
301.125
301.165
301.206
301.247
301.29
301.334
301.378
301.423
301.469
301.515
301.563
301.611
301.659
301.708
301.758
301.808
301.858
301.908
301.958
302.008
302.057
302.106
302.154
300.003
300.008
300.014
300.02
300.026
300.032
300.039
300.046
300.053
300.061
300.069
300.078
300.086
300.096
300.105
300.115
300.126
300.137
300.148
300.16
300.173
300.186
300.199
300.213
300.228
300.243
300.259
300.275
300.292
300.309
300.327
300.346
300.365
300.385
300.406
300.427
300.449
300.472
300.495
300.519
300.544
300.569
300.595
300.622
300.649
300.678
300.707
300.736
300.767
300.798
300.83
300.863
300.897
300.931
300.967
301.003
301.039
301.077
301.115
301.155
301.195
301.235
301.277
301.319
301.362
301.406
301.45
301.495
301.54
301.586
301.632
301.679
301.726
301.773
301.82
301.867
301.914
301.961
302.007
302.052
302.097
300.003
300.008
300.014
300.019
300.026
300.032
300.039
300.046
300.053
300.061
300.069
300.077
300.086
300.095
300.105
300.115
300.126
300.137
300.148
300.16
300.173
300.185
300.199
300.213
300.227
300.242
300.258
300.274
300.291
300.308
300.326
300.345
300.364
300.384
300.404
300.426
300.447
300.47
300.493
300.517
300.541
300.566
300.592
300.619
300.646
300.674
300.703
300.732
300.762
300.793
300.825
300.857
300.89
300.924
300.959
300.994
301.03
301.067
301.105
301.143
301.182
301.221
301.261
301.302
301.344
301.386
301.428
301.471
301.515
301.558
301.602
301.647
301.691
301.735
301.78
301.824
301.868
301.911
301.954
301.997
302.039
300.003
300.008
300.014
300.019
300.026
300.032
300.039
300.046
300.053
300.061
300.069
300.077
300.086
300.095
300.105
300.115
300.125
300.136
300.148
300.16
300.172
300.185
300.198
300.212
300.227
300.242
300.257
300.273
300.29
300.307
300.325
300.344
300.363
300.382
300.403
300.424
300.445
300.468
300.49
300.514
300.538
300.563
300.589
300.615
300.642
300.67
300.698
300.727
300.757
300.787
300.818
300.85
300.883
300.916
300.95
300.984
301.02
301.055
301.092
301.129
301.167
301.205
301.244
301.283
301.323
301.364
301.404
301.445
301.487
301.528
301.57
301.612
301.654
301.695
301.737
301.778
301.82
301.86
301.9
301.94
301.979
300.003
300.008
300.014
300.019
300.025
300.032
300.039
300.046
300.053
300.061
300.069
300.077
300.086
300.095
300.105
300.115
300.125
300.136
300.147
300.159
300.171
300.184
300.198
300.211
300.226
300.241
300.256
300.272
300.289
300.306
300.324
300.342
300.361
300.381
300.401
300.421
300.443
300.465
300.488
300.511
300.535
300.56
300.585
300.611
300.637
300.665
300.693
300.721
300.75
300.78
300.811
300.842
300.874
300.906
300.939
300.973
301.007
301.042
301.078
301.114
301.15
301.187
301.224
301.262
301.301
301.339
301.378
301.417
301.456
301.496
301.535
301.575
301.614
301.653
301.692
301.731
301.77
301.808
301.845
301.882
301.919
300.003
300.008
300.014
300.019
300.025
300.032
300.038
300.045
300.053
300.06
300.068
300.077
300.085
300.095
300.104
300.114
300.124
300.135
300.147
300.158
300.171
300.183
300.197
300.21
300.225
300.24
300.255
300.271
300.287
300.304
300.322
300.34
300.359
300.378
300.398
300.419
300.44
300.462
300.484
300.507
300.531
300.555
300.58
300.606
300.632
300.659
300.686
300.714
300.743
300.772
300.802
300.832
300.864
300.895
300.927
300.96
300.993
301.027
301.061
301.096
301.131
301.167
301.203
301.239
301.275
301.312
301.349
301.386
301.423
301.461
301.498
301.535
301.572
301.609
301.646
301.682
301.718
301.753
301.789
301.823
301.857
300.003
300.008
300.013
300.019
300.025
300.032
300.038
300.045
300.052
300.06
300.068
300.076
300.085
300.094
300.104
300.114
300.124
300.135
300.146
300.158
300.17
300.183
300.196
300.209
300.224
300.238
300.253
300.269
300.286
300.302
300.32
300.338
300.357
300.376
300.395
300.416
300.437
300.458
300.48
300.503
300.526
300.55
300.575
300.6
300.626
300.652
300.679
300.706
300.734
300.763
300.792
300.822
300.852
300.883
300.914
300.945
300.978
301.01
301.043
301.077
301.11
301.144
301.179
301.213
301.248
301.283
301.318
301.353
301.388
301.423
301.459
301.494
301.528
301.563
301.597
301.631
301.665
301.698
301.731
301.763
301.795
300.003
300.008
300.013
300.019
300.025
300.031
300.038
300.045
300.052
300.06
300.068
300.076
300.085
300.094
300.103
300.113
300.123
300.134
300.145
300.157
300.169
300.181
300.194
300.208
300.222
300.237
300.252
300.267
300.284
300.3
300.318
300.335
300.354
300.373
300.392
300.412
300.433
300.454
300.476
300.498
300.521
300.544
300.569
300.593
300.618
300.644
300.67
300.697
300.724
300.752
300.781
300.809
300.839
300.868
300.899
300.929
300.96
300.991
301.023
301.055
301.087
301.12
301.153
301.185
301.219
301.252
301.285
301.318
301.351
301.384
301.417
301.45
301.483
301.515
301.547
301.579
301.61
301.641
301.672
301.702
301.732
300.003
300.008
300.013
300.019
300.025
300.031
300.038
300.045
300.052
300.059
300.067
300.076
300.084
300.093
300.102
300.112
300.122
300.133
300.144
300.156
300.168
300.18
300.193
300.207
300.22
300.235
300.25
300.265
300.281
300.298
300.315
300.332
300.35
300.369
300.388
300.408
300.428
300.449
300.471
300.492
300.515
300.538
300.561
300.585
300.61
300.635
300.661
300.687
300.713
300.74
300.768
300.796
300.824
300.853
300.882
300.911
300.941
300.971
301.001
301.032
301.062
301.093
301.124
301.156
301.187
301.218
301.249
301.281
301.312
301.343
301.374
301.405
301.435
301.465
301.495
301.525
301.555
301.583
301.612
301.64
301.668
300.003
300.008
300.013
300.019
300.025
300.031
300.038
300.044
300.052
300.059
300.067
300.075
300.084
300.092
300.102
300.111
300.122
300.132
300.143
300.154
300.166
300.179
300.191
300.205
300.219
300.233
300.248
300.263
300.279
300.295
300.312
300.329
300.347
300.365
300.384
300.403
300.423
300.444
300.465
300.486
300.508
300.53
300.553
300.577
300.601
300.625
300.65
300.675
300.701
300.727
300.753
300.78
300.807
300.835
300.863
300.891
300.92
300.948
300.977
301.006
301.035
301.065
301.094
301.124
301.153
301.183
301.212
301.242
301.271
301.3
301.329
301.358
301.386
301.415
301.443
301.47
301.498
301.525
301.551
301.578
301.604
300.003
300.008
300.013
300.019
300.025
300.031
300.037
300.044
300.051
300.059
300.066
300.074
300.083
300.092
300.101
300.11
300.12
300.131
300.142
300.153
300.165
300.177
300.19
300.203
300.216
300.23
300.245
300.26
300.275
300.291
300.308
300.325
300.342
300.36
300.379
300.398
300.417
300.437
300.458
300.479
300.5
300.522
300.544
300.567
300.59
300.614
300.638
300.662
300.687
300.712
300.738
300.763
300.789
300.816
300.843
300.869
300.897
300.924
300.951
300.979
301.007
301.034
301.062
301.09
301.118
301.145
301.173
301.201
301.228
301.255
301.283
301.309
301.336
301.363
301.389
301.415
301.44
301.465
301.49
301.515
301.539
300.003
300.008
300.013
300.019
300.024
300.031
300.037
300.044
300.051
300.058
300.066
300.074
300.082
300.091
300.1
300.109
300.119
300.13
300.14
300.151
300.163
300.175
300.187
300.2
300.214
300.228
300.242
300.257
300.272
300.288
300.304
300.32
300.337
300.355
300.373
300.392
300.411
300.43
300.45
300.47
300.491
300.512
300.534
300.556
300.578
300.601
300.624
300.648
300.672
300.696
300.72
300.745
300.77
300.795
300.82
300.846
300.872
300.898
300.924
300.95
300.976
301.002
301.028
301.054
301.081
301.107
301.133
301.158
301.184
301.21
301.235
301.26
301.285
301.309
301.334
301.358
301.382
301.405
301.428
301.451
301.474
300.002
300.008
300.013
300.018
300.024
300.03
300.037
300.043
300.05
300.057
300.065
300.073
300.081
300.09
300.099
300.108
300.118
300.128
300.139
300.15
300.161
300.173
300.185
300.198
300.211
300.224
300.238
300.253
300.268
300.283
300.299
300.315
300.332
300.349
300.367
300.385
300.403
300.422
300.441
300.461
300.481
300.502
300.523
300.544
300.565
300.587
300.609
300.632
300.655
300.678
300.701
300.725
300.749
300.773
300.797
300.821
300.845
300.87
300.894
300.919
300.944
300.968
300.993
301.017
301.042
301.066
301.09
301.115
301.139
301.162
301.186
301.209
301.232
301.255
301.278
301.301
301.323
301.344
301.366
301.387
301.408
300.002
300.007
300.013
300.018
300.024
300.03
300.036
300.043
300.05
300.057
300.064
300.072
300.08
300.089
300.097
300.107
300.116
300.126
300.137
300.147
300.159
300.17
300.182
300.195
300.208
300.221
300.235
300.249
300.263
300.278
300.294
300.309
300.326
300.342
300.359
300.377
300.395
300.413
300.432
300.451
300.47
300.49
300.51
300.53
300.551
300.572
300.593
300.615
300.637
300.659
300.681
300.703
300.726
300.749
300.771
300.794
300.817
300.84
300.863
300.887
300.91
300.933
300.956
300.979
301.002
301.024
301.047
301.07
301.092
301.114
301.136
301.158
301.179
301.201
301.222
301.243
301.263
301.283
301.303
301.323
301.343
300.002
300.007
300.013
300.018
300.024
300.03
300.036
300.042
300.049
300.056
300.063
300.071
300.079
300.087
300.096
300.105
300.114
300.124
300.134
300.145
300.156
300.167
300.179
300.191
300.204
300.217
300.23
300.244
300.258
300.273
300.288
300.303
300.319
300.335
300.351
300.368
300.386
300.403
300.421
300.44
300.458
300.477
300.496
300.516
300.536
300.556
300.576
300.596
300.617
300.638
300.659
300.68
300.702
300.723
300.745
300.766
300.788
300.809
300.831
300.853
300.874
300.896
300.918
300.939
300.96
300.982
301.003
301.024
301.044
301.065
301.085
301.106
301.126
301.145
301.165
301.184
301.203
301.222
301.241
301.259
301.277
300.002
300.007
300.012
300.018
300.023
300.029
300.035
300.041
300.048
300.055
300.062
300.07
300.078
300.086
300.094
300.103
300.112
300.122
300.132
300.142
300.153
300.164
300.176
300.187
300.2
300.212
300.225
300.239
300.252
300.267
300.281
300.296
300.311
300.327
300.343
300.359
300.376
300.392
300.41
300.427
300.445
300.463
300.482
300.5
300.519
300.538
300.557
300.577
300.596
300.616
300.636
300.656
300.676
300.696
300.716
300.737
300.757
300.777
300.798
300.818
300.838
300.858
300.878
300.898
300.918
300.938
300.957
300.977
300.996
301.015
301.034
301.053
301.071
301.09
301.108
301.126
301.144
301.161
301.178
301.195
301.212
300.002
300.007
300.012
300.017
300.023
300.029
300.034
300.041
300.047
300.054
300.061
300.068
300.076
300.084
300.092
300.101
300.11
300.12
300.129
300.139
300.15
300.161
300.172
300.183
300.195
300.207
300.22
300.233
300.246
300.26
300.274
300.288
300.303
300.318
300.333
300.349
300.365
300.381
300.397
300.414
300.431
300.448
300.466
300.483
300.501
300.519
300.537
300.556
300.574
300.593
300.612
300.63
300.649
300.668
300.687
300.706
300.725
300.744
300.763
300.782
300.801
300.819
300.838
300.856
300.875
300.893
300.911
300.929
300.947
300.965
300.983
301
301.017
301.034
301.051
301.067
301.084
301.1
301.116
301.131
301.147
300.002
300.007
300.012
300.017
300.022
300.028
300.034
300.04
300.046
300.053
300.06
300.067
300.074
300.082
300.09
300.099
300.108
300.117
300.126
300.136
300.146
300.157
300.167
300.178
300.19
300.202
300.214
300.226
300.239
300.252
300.266
300.28
300.294
300.308
300.323
300.337
300.353
300.368
300.384
300.4
300.416
300.432
300.449
300.465
300.482
300.499
300.516
300.534
300.551
300.569
300.586
300.604
300.621
300.639
300.657
300.674
300.692
300.71
300.727
300.745
300.762
300.78
300.797
300.814
300.831
300.848
300.865
300.882
300.898
300.915
300.931
300.947
300.963
300.978
300.994
301.009
301.024
301.039
301.054
301.068
301.083
300.002
300.007
300.012
300.017
300.022
300.027
300.033
300.039
300.045
300.052
300.058
300.065
300.073
300.08
300.088
300.096
300.105
300.114
300.123
300.132
300.142
300.152
300.163
300.173
300.184
300.196
300.207
300.219
300.232
300.244
300.257
300.27
300.284
300.297
300.311
300.326
300.34
300.355
300.369
300.385
300.4
300.415
300.431
300.447
300.462
300.478
300.495
300.511
300.527
300.543
300.56
300.576
300.593
300.609
300.626
300.642
300.658
300.675
300.691
300.707
300.724
300.74
300.756
300.772
300.787
300.803
300.819
300.834
300.849
300.864
300.879
300.894
300.909
300.923
300.937
300.951
300.965
300.979
300.993
301.006
301.019
300.002
300.007
300.011
300.016
300.021
300.027
300.032
300.038
300.044
300.05
300.057
300.064
300.071
300.078
300.086
300.094
300.102
300.11
300.119
300.128
300.138
300.148
300.158
300.168
300.178
300.189
300.201
300.212
300.224
300.236
300.248
300.261
300.273
300.286
300.3
300.313
300.327
300.34
300.354
300.369
300.383
300.398
300.412
300.427
300.442
300.457
300.472
300.487
300.502
300.517
300.533
300.548
300.563
300.579
300.594
300.609
300.624
300.639
300.654
300.67
300.684
300.699
300.714
300.729
300.743
300.758
300.772
300.786
300.8
300.814
300.828
300.842
300.855
300.868
300.881
300.894
300.907
300.92
300.932
300.945
300.957
300.002
300.006
300.011
300.016
300.021
300.026
300.031
300.037
300.043
300.049
300.055
300.062
300.069
300.076
300.083
300.091
300.099
300.107
300.115
300.124
300.133
300.143
300.152
300.162
300.172
300.183
300.193
300.204
300.215
300.227
300.238
300.25
300.262
300.275
300.287
300.3
300.313
300.326
300.339
300.352
300.366
300.379
300.393
300.407
300.421
300.435
300.449
300.463
300.477
300.491
300.505
300.519
300.533
300.548
300.562
300.576
300.59
300.604
300.618
300.632
300.645
300.659
300.673
300.686
300.7
300.713
300.726
300.739
300.752
300.765
300.777
300.79
300.802
300.814
300.826
300.838
300.85
300.862
300.873
300.884
300.895
300.002
300.006
300.011
300.015
300.02
300.025
300.03
300.036
300.041
300.047
300.053
300.06
300.066
300.073
300.08
300.088
300.095
300.103
300.111
300.12
300.128
300.137
300.146
300.156
300.165
300.175
300.185
300.196
300.206
300.217
300.228
300.239
300.251
300.262
300.274
300.286
300.298
300.31
300.323
300.335
300.348
300.36
300.373
300.386
300.399
300.412
300.425
300.438
300.451
300.464
300.477
300.49
300.504
300.517
300.53
300.543
300.556
300.569
300.581
300.594
300.607
300.619
300.632
300.644
300.657
300.669
300.681
300.693
300.705
300.716
300.728
300.739
300.751
300.762
300.773
300.784
300.794
300.805
300.816
300.826
300.836
300.002
300.006
300.01
300.015
300.019
300.024
300.029
300.034
300.04
300.046
300.051
300.058
300.064
300.07
300.077
300.084
300.092
300.099
300.107
300.115
300.123
300.132
300.14
300.149
300.158
300.168
300.177
300.187
300.197
300.207
300.218
300.228
300.239
300.25
300.261
300.272
300.283
300.295
300.306
300.318
300.33
300.341
300.353
300.365
300.377
300.389
300.401
300.413
300.426
300.438
300.45
300.462
300.474
300.486
300.498
300.51
300.522
300.534
300.545
300.557
300.569
300.58
300.592
300.603
300.614
300.626
300.637
300.648
300.658
300.669
300.68
300.69
300.7
300.711
300.721
300.731
300.741
300.75
300.76
300.769
300.779
300.002
300.006
300.01
300.014
300.019
300.023
300.028
300.033
300.038
300.044
300.049
300.055
300.061
300.068
300.074
300.081
300.088
300.095
300.102
300.11
300.118
300.126
300.134
300.143
300.151
300.16
300.169
300.178
300.188
300.197
300.207
300.217
300.227
300.237
300.248
300.258
300.269
300.279
300.29
300.301
300.312
300.323
300.334
300.345
300.356
300.367
300.378
300.389
300.4
300.412
300.423
300.434
300.445
300.456
300.467
300.478
300.489
300.5
300.511
300.521
300.532
300.543
300.553
300.563
300.574
300.584
300.594
300.604
300.614
300.624
300.633
300.643
300.652
300.662
300.671
300.68
300.689
300.698
300.707
300.715
300.724
300.002
300.006
300.01
300.014
300.018
300.022
300.027
300.032
300.037
300.042
300.047
300.053
300.059
300.065
300.071
300.077
300.084
300.091
300.098
300.105
300.113
300.12
300.128
300.136
300.144
300.153
300.161
300.17
300.179
300.188
300.197
300.206
300.215
300.225
300.234
300.244
300.254
300.264
300.274
300.284
300.294
300.304
300.314
300.325
300.335
300.345
300.355
300.366
300.376
300.386
300.397
300.407
300.417
300.427
300.437
300.447
300.457
300.467
300.477
300.487
300.497
300.506
300.516
300.526
300.535
300.544
300.553
300.563
300.572
300.581
300.589
300.598
300.607
300.615
300.624
300.632
300.64
300.648
300.656
300.664
300.672
300.002
300.005
300.009
300.013
300.017
300.021
300.026
300.03
300.035
300.04
300.045
300.051
300.056
300.062
300.068
300.074
300.08
300.087
300.093
300.1
300.107
300.115
300.122
300.129
300.137
300.145
300.153
300.161
300.169
300.178
300.186
300.195
300.204
300.213
300.222
300.231
300.24
300.249
300.258
300.268
300.277
300.287
300.296
300.305
300.315
300.324
300.334
300.343
300.353
300.362
300.372
300.381
300.391
300.4
300.409
300.418
300.428
300.437
300.446
300.455
300.464
300.473
300.481
300.49
300.499
300.507
300.516
300.524
300.532
300.541
300.549
300.557
300.564
300.572
300.58
300.587
300.595
300.602
300.61
300.617
300.624
300.002
300.005
300.009
300.013
300.016
300.021
300.025
300.029
300.034
300.039
300.044
300.049
300.054
300.059
300.065
300.071
300.077
300.083
300.089
300.096
300.102
300.109
300.116
300.123
300.131
300.138
300.146
300.153
300.161
300.169
300.177
300.185
300.193
300.202
300.21
300.218
300.227
300.235
300.244
300.253
300.261
300.27
300.279
300.288
300.296
300.305
300.314
300.323
300.332
300.34
300.349
300.358
300.366
300.375
300.384
300.392
300.401
300.409
300.417
300.426
300.434
300.442
300.45
300.458
300.466
300.474
300.481
300.489
300.497
300.504
300.512
300.519
300.526
300.533
300.54
300.547
300.554
300.561
300.567
300.574
300.58
300.002
300.005
300.008
300.012
300.016
300.02
300.024
300.028
300.032
300.037
300.042
300.047
300.052
300.057
300.062
300.068
300.074
300.079
300.085
300.092
300.098
300.104
300.111
300.118
300.125
300.132
300.139
300.146
300.153
300.161
300.168
300.176
300.184
300.191
300.199
300.207
300.215
300.223
300.231
300.239
300.248
300.256
300.264
300.272
300.28
300.288
300.297
300.305
300.313
300.321
300.329
300.337
300.345
300.353
300.361
300.369
300.377
300.384
300.392
300.4
300.407
300.415
300.422
300.43
300.437
300.444
300.451
300.459
300.466
300.472
300.479
300.486
300.493
300.499
300.506
300.512
300.518
300.525
300.531
300.537
300.543
300.002
300.005
300.008
300.012
300.015
300.019
300.023
300.027
300.031
300.036
300.04
300.045
300.05
300.055
300.06
300.065
300.071
300.076
300.082
300.088
300.094
300.1
300.107
300.113
300.12
300.126
300.133
300.14
300.147
300.154
300.161
300.168
300.176
300.183
300.19
300.198
300.205
300.213
300.221
300.228
300.236
300.244
300.251
300.259
300.267
300.274
300.282
300.29
300.297
300.305
300.312
300.32
300.328
300.335
300.342
300.35
300.357
300.364
300.372
300.379
300.386
300.393
300.4
300.407
300.413
300.42
300.427
300.433
300.44
300.446
300.453
300.459
300.465
300.471
300.477
300.483
300.489
300.495
300.501
300.506
300.512
300.002
300.005
300.008
300.011
300.015
300.019
300.022
300.026
300.03
300.035
300.039
300.044
300.048
300.053
300.058
300.063
300.069
300.074
300.08
300.085
300.091
300.097
300.103
300.11
300.116
300.122
300.129
300.135
300.142
300.149
300.156
300.163
300.17
300.177
300.184
300.191
300.198
300.206
300.213
300.22
300.227
300.235
300.242
300.249
300.257
300.264
300.271
300.279
300.286
300.293
300.3
300.308
300.315
300.322
300.329
300.336
300.343
300.35
300.357
300.363
300.37
300.377
300.383
300.39
300.396
300.403
300.409
300.415
300.421
300.428
300.434
300.439
300.445
300.451
300.457
300.463
300.468
300.474
300.479
300.484
300.49
300.002
300.005
300.008
300.011
300.015
300.018
300.022
300.026
300.03
300.034
300.039
300.043
300.048
300.052
300.057
300.062
300.068
300.073
300.078
300.084
300.09
300.096
300.102
300.108
300.114
300.12
300.126
300.133
300.139
300.146
300.153
300.16
300.166
300.173
300.18
300.187
300.194
300.201
300.208
300.216
300.223
300.23
300.237
300.244
300.251
300.258
300.265
300.273
300.28
300.287
300.294
300.301
300.308
300.314
300.321
300.328
300.335
300.342
300.348
300.355
300.361
300.368
300.374
300.381
300.387
300.393
300.399
300.405
300.411
300.417
300.423
300.429
300.434
300.44
300.446
300.451
300.456
300.462
300.467
300.472
300.477
302.781
302.902
303.004
303.093
303.173
303.245
303.311
303.371
303.427
303.478
303.526
303.571
303.612
303.651
303.686
303.72
303.752
303.782
303.81
303.838
303.864
303.89
303.917
303.944
303.972
303.999
304.027
304.055
304.082
304.109
304.136
304.163
304.189
304.215
304.241
304.267
304.292
304.318
304.343
304.368
304.392
304.417
304.442
304.466
304.49
304.514
304.538
304.562
304.586
304.609
304.633
304.656
304.679
304.703
304.725
304.748
304.771
304.793
304.816
304.838
304.86
304.882
304.904
304.926
304.948
304.969
304.991
305.012
305.033
305.054
305.075
305.095
305.116
305.136
305.156
305.176
305.196
305.215
305.235
305.254
305.273
305.292
305.311
305.329
305.348
305.366
305.384
305.402
305.419
305.436
305.454
305.47
305.487
305.503
305.52
305.536
305.551
305.567
305.582
305.597
305.612
305.626
305.64
305.654
305.668
305.681
305.694
305.706
305.719
305.731
305.742
305.754
305.765
305.775
305.785
305.795
305.805
305.813
305.822
305.83
305.837
305.844
305.851
305.857
305.862
305.867
305.871
305.874
305.877
305.879
305.88
305.88
305.88
305.878
305.876
305.872
305.868
305.862
305.855
305.847
305.837
305.825
305.812
305.796
305.779
305.76
305.738
305.713
305.685
305.654
305.62
305.581
305.538
305.489
305.434
305.373
305.31
305.236
305.132
304.978
304.743
302.715
302.823
302.921
303.008
303.087
303.16
303.226
303.287
303.344
303.397
303.446
303.492
303.535
303.575
303.613
303.648
303.682
303.714
303.744
303.773
303.801
303.829
303.857
303.885
303.913
303.941
303.969
303.998
304.025
304.053
304.08
304.107
304.134
304.161
304.187
304.213
304.239
304.265
304.29
304.315
304.341
304.365
304.39
304.415
304.44
304.464
304.488
304.512
304.536
304.56
304.584
304.607
304.631
304.654
304.677
304.7
304.723
304.746
304.769
304.791
304.814
304.836
304.858
304.88
304.902
304.924
304.945
304.967
304.988
305.009
305.03
305.051
305.071
305.092
305.112
305.132
305.152
305.172
305.192
305.211
305.23
305.249
305.268
305.287
305.306
305.324
305.342
305.36
305.377
305.395
305.412
305.429
305.446
305.462
305.479
305.495
305.511
305.526
305.542
305.557
305.571
305.586
305.6
305.614
305.628
305.641
305.654
305.667
305.68
305.692
305.704
305.715
305.726
305.737
305.747
305.757
305.766
305.775
305.784
305.792
305.799
305.807
305.813
305.819
305.824
305.829
305.833
305.837
305.84
305.842
305.843
305.843
305.843
305.841
305.839
305.835
305.831
305.825
305.818
305.809
305.799
305.788
305.774
305.759
305.742
305.722
305.7
305.675
305.647
305.616
305.581
305.542
305.498
305.449
305.393
305.33
305.264
305.184
305.076
304.918
304.68
302.657
302.753
302.843
302.927
303.004
303.075
303.141
303.203
303.26
303.314
303.364
303.411
303.456
303.497
303.536
303.573
303.608
303.642
303.674
303.705
303.735
303.764
303.793
303.822
303.851
303.88
303.908
303.937
303.965
303.993
304.021
304.048
304.076
304.103
304.13
304.156
304.182
304.208
304.234
304.26
304.285
304.311
304.336
304.361
304.386
304.41
304.435