/*--------------------------------*- C++ -*----------------------------------*\
| =========                 |                                                 |
| \\      /  F ield         | OpenFOAM: The Open Source CFD Toolbox           |
|  \\    /   O peration     | Version:  2112                                  |
|   \\  /    A nd           | Website:  www.openfoam.com                      |
|    \\/     M anipulation  |                                                 |
\*---------------------------------------------------------------------------*/
FoamFile
{
    version     2.0;
    format      ascii;
    arch        "LSB;label=32;scalar=64";
    class       volVectorField;
    location    "4";
    object      U;
}
// * * * * * * * * * * * * * * * * * * * * * * * * * * * * * * * * * * * * * //

dimensions      [0 1 -1 0 0 0 0];

internalField   nonuniform List<vector> 
12013
(
(0.10003 -8.3324e-06 0)
(0.100152 -1.54143e-05 0)
(0.10035 -2.19658e-05 0)
(0.100606 -2.79893e-05 0)
(0.100915 -3.36353e-05 0)
(0.101271 -3.89892e-05 0)
(0.10167 -4.41073e-05 0)
(0.102108 -4.90339e-05 0)
(0.102581 -5.38029e-05 0)
(0.103088 -5.84413e-05 0)
(0.103625 -6.29704e-05 0)
(0.10419 -6.74067e-05 0)
(0.104781 -7.17641e-05 0)
(0.105396 -7.60543e-05 0)
(0.106034 -8.02855e-05 0)
(0.106693 -8.44645e-05 0)
(0.107372 -8.85966e-05 0)
(0.108068 -9.26859e-05 0)
(0.108782 -9.67341e-05 0)
(0.109511 -0.000100743 0)
(0.110254 -0.000104713 0)
(0.111011 -0.000108643 0)
(0.11178 -0.000112531 0)
(0.11256 -0.000116375 0)
(0.113351 -0.000120173 0)
(0.11415 -0.00012392 0)
(0.114958 -0.000127612 0)
(0.115773 -0.000131245 0)
(0.116594 -0.000134813 0)
(0.117421 -0.000138311 0)
(0.118251 -0.000141731 0)
(0.119085 -0.000145069 0)
(0.119922 -0.000148317 0)
(0.12076 -0.000151466 0)
(0.121598 -0.000154509 0)
(0.122436 -0.000157437 0)
(0.123273 -0.00016024 0)
(0.124108 -0.000162908 0)
(0.12494 -0.000165429 0)
(0.125768 -0.000167789 0)
(0.12659 -0.000169976 0)
(0.127407 -0.000171973 0)
(0.128217 -0.000173761 0)
(0.129019 -0.000175322 0)
(0.129812 -0.000176631 0)
(0.130595 -0.000177663 0)
(0.131367 -0.000178389 0)
(0.132126 -0.000178775 0)
(0.132872 -0.000178783 0)
(0.133604 -0.000178369 0)
(0.134318 -0.000177481 0)
(0.135015 -0.000176063 0)
(0.135693 -0.000174044 0)
(0.136349 -0.000171346 0)
(0.136982 -0.000167876 0)
(0.137589 -0.000163523 0)
(0.138169 -0.000158158 0)
(0.138718 -0.000151626 0)
(0.139232 -0.000143739 0)
(0.13971 -0.000134273 0)
(0.140146 -0.000122949 0)
(0.140535 -0.00010943 0)
(0.140873 -9.32892e-05 0)
(0.141152 -7.39949e-05 0)
(0.141364 -5.08682e-05 0)
(0.141501 -2.30333e-05 0)
(0.14155 1.06577e-05 0)
(0.141496 5.1766e-05 0)
(0.141322 0.000102436 0)
(0.141004 0.000165648 0)
(0.140511 0.000245665 0)
(0.139801 0.000348751 0)
(0.138818 0.000484377 0)
(0.137481 0.000667319 0)
(0.135675 0.000921394 0)
(0.133226 0.00128626 0)
(0.12987 0.00183027 0)
(0.125166 0.00267817 0)
(0.11839 0.00409576 0)
(0.108568 0.00685436 0)
(0.0973209 0.0145316 0)
(0.100028 -2.54455e-05 0)
(0.100149 -4.72629e-05 0)
(0.100347 -6.73848e-05 0)
(0.100602 -8.58715e-05 0)
(0.10091 -0.000103199 0)
(0.101265 -0.00011963 0)
(0.101663 -0.000135335 0)
(0.1021 -0.000150452 0)
(0.102573 -0.000165084 0)
(0.103079 -0.000179314 0)
(0.103615 -0.000193207 0)
(0.104179 -0.000206816 0)
(0.10477 -0.000220182 0)
(0.105384 -0.00023334 0)
(0.106021 -0.000246316 0)
(0.106679 -0.000259133 0)
(0.107356 -0.000271804 0)
(0.108052 -0.000284343 0)
(0.108764 -0.000296756 0)
(0.109492 -0.000309047 0)
(0.110234 -0.000321217 0)
(0.110989 -0.000333264 0)
(0.111757 -0.000345183 0)
(0.112536 -0.000356966 0)
(0.113325 -0.000368605 0)
(0.114123 -0.000380089 0)
(0.114929 -0.000391403 0)
(0.115742 -0.000402535 0)
(0.116562 -0.000413467 0)
(0.117386 -0.000424182 0)
(0.118215 -0.000434661 0)
(0.119047 -0.000444884 0)
(0.119882 -0.000454829 0)
(0.120718 -0.000464473 0)
(0.121554 -0.00047379 0)
(0.12239 -0.000482754 0)
(0.123225 -0.000491334 0)
(0.124058 -0.000499499 0)
(0.124887 -0.000507211 0)
(0.125712 -0.000514434 0)
(0.126533 -0.000521121 0)
(0.127347 -0.000527225 0)
(0.128155 -0.000532691 0)
(0.128954 -0.000537456 0)
(0.129744 -0.000541452 0)
(0.130525 -0.000544599 0)
(0.131294 -0.000546807 0)
(0.132051 -0.000547974 0)
(0.132794 -0.000547982 0)
(0.133523 -0.000546698 0)
(0.134235 -0.000543966 0)
(0.134929 -0.000539607 0)
(0.135604 -0.000533413 0)
(0.136257 -0.000525142 0)
(0.136888 -0.000514511 0)
(0.137493 -0.000501186 0)
(0.13807 -0.000484769 0)
(0.138617 -0.00046479 0)
(0.13913 -0.000440682 0)
(0.139606 -0.000411759 0)
(0.140041 -0.000377185 0)
(0.140431 -0.000335931 0)
(0.140769 -0.000286717 0)
(0.14105 -0.000227937 0)
(0.141266 -0.000157551 0)
(0.141409 -7.29356e-05 0)
(0.141466 2.93321e-05 0)
(0.141425 0.000153848 0)
(0.141269 0.000306878 0)
(0.140977 0.000497077 0)
(0.140522 0.000736681 0)
(0.139868 0.0010434 0)
(0.13897 0.00144353 0)
(0.137766 0.00197709 0)
(0.136171 0.00270654 0)
(0.134072 0.00373145 0)
(0.131316 0.00521258 0)
(0.127696 0.00741054 0)
(0.12296 0.0107489 0)
(0.11713 0.0158276 0)
(0.112272 0.0228697 0)
(0.100025 -4.32642e-05 0)
(0.100146 -8.10799e-05 0)
(0.100341 -0.000115736 0)
(0.100595 -0.000147564 0)
(0.100901 -0.00017739 0)
(0.101255 -0.000205667 0)
(0.101652 -0.00023269 0)
(0.102087 -0.000258697 0)
(0.102558 -0.000283869 0)
(0.103062 -0.000308346 0)
(0.103597 -0.000332241 0)
(0.104159 -0.000355644 0)
(0.104747 -0.000378629 0)
(0.10536 -0.000401252 0)
(0.105995 -0.000423562 0)
(0.10665 -0.000445595 0)
(0.107325 -0.000467376 0)
(0.108019 -0.000488927 0)
(0.108728 -0.00051026 0)
(0.109454 -0.000531381 0)
(0.110193 -0.000552292 0)
(0.110946 -0.000572989 0)
(0.111711 -0.000593464 0)
(0.112487 -0.000613704 0)
(0.113273 -0.000633693 0)
(0.114068 -0.000653412 0)
(0.114871 -0.000672839 0)
(0.11568 -0.000691948 0)
(0.116496 -0.000710711 0)
(0.117317 -0.000729099 0)
(0.118142 -0.000747079 0)
(0.118971 -0.000764616 0)
(0.119801 -0.000781672 0)
(0.120633 -0.000798208 0)
(0.121466 -0.000814179 0)
(0.122297 -0.00082954 0)
(0.123128 -0.000844238 0)
(0.123956 -0.000858218 0)
(0.124781 -0.00087142 0)
(0.125601 -0.000883775 0)
(0.126417 -0.000895209 0)
(0.127226 -0.000905637 0)
(0.128028 -0.000914966 0)
(0.128823 -0.000923089 0)
(0.129608 -0.000929888 0)
(0.130383 -0.000935228 0)
(0.131147 -0.000938954 0)
(0.131898 -0.000940892 0)
(0.132636 -0.000940842 0)
(0.133359 -0.000938575 0)
(0.134065 -0.000933826 0)
(0.134754 -0.000926291 0)
(0.135423 -0.000915618 0)
(0.136072 -0.000901395 0)
(0.136697 -0.000883142 0)
(0.137297 -0.000860294 0)
(0.137869 -0.000832182 0)
(0.138412 -0.000798012 0)
(0.138921 -0.000756833 0)
(0.139394 -0.000707495 0)
(0.139827 -0.000648604 0)
(0.140216 -0.000578447 0)
(0.140555 -0.000494906 0)
(0.140839 -0.000395336 0)
(0.141061 -0.000276395 0)
(0.141212 -0.000133817 0)
(0.141284 3.79089e-05 0)
(0.141264 0.000246063 0)
(0.141139 0.000500425 0)
(0.140891 0.00081429 0)
(0.140501 0.00120603 0)
(0.139942 0.00170147 0)
(0.139183 0.00233759 0)
(0.138189 0.00316813 0)
(0.136916 0.00427211 0)
(0.135323 0.00576607 0)
(0.133376 0.00781941 0)
(0.131079 0.0106679 0)
(0.128533 0.0146082 0)
(0.126127 0.0198648 0)
(0.124998 0.0258619 0)
(0.100023 -6.16404e-05 0)
(0.100142 -0.000116778 0)
(0.100334 -0.000166968 0)
(0.100586 -0.000213089 0)
(0.100889 -0.000256289 0)
(0.101241 -0.000297229 0)
(0.101635 -0.000336347 0)
(0.102068 -0.000373985 0)
(0.102537 -0.000410407 0)
(0.103038 -0.000445819 0)
(0.10357 -0.000480383 0)
(0.104129 -0.000514231 0)
(0.104714 -0.000547468 0)
(0.105324 -0.000580179 0)
(0.105956 -0.000612432 0)
(0.106608 -0.000644278 0)
(0.10728 -0.000675757 0)
(0.107969 -0.000706898 0)
(0.108675 -0.00073772 0)
(0.109397 -0.00076823 0)
(0.110132 -0.000798432 0)
(0.110881 -0.00082832 0)
(0.111641 -0.000857882 0)
(0.112413 -0.000887099 0)
(0.113194 -0.000915949 0)
(0.113984 -0.000944402 0)
(0.114782 -0.000972428 0)
(0.115587 -0.000999989 0)
(0.116397 -0.00102704 0)
(0.117213 -0.00105355 0)
(0.118032 -0.00107946 0)
(0.118855 -0.00110473 0)
(0.11968 -0.00112929 0)
(0.120505 -0.0011531 0)
(0.121331 -0.00117608 0)
(0.122157 -0.00119817 0)
(0.12298 -0.0012193 0)
(0.123802 -0.00123939 0)
(0.124619 -0.00125834 0)
(0.125433 -0.00127607 0)
(0.126241 -0.00129246 0)
(0.127043 -0.00130739 0)
(0.127837 -0.00132072 0)
(0.128624 -0.00133231 0)
(0.129401 -0.00134199 0)
(0.130168 -0.00134955 0)
(0.130924 -0.00135478 0)
(0.131667 -0.00135744 0)
(0.132397 -0.00135722 0)
(0.133111 -0.00135381 0)
(0.13381 -0.00134684 0)
(0.13449 -0.00133586 0)
(0.135151 -0.00132038 0)
(0.135792 -0.00129981 0)
(0.136409 -0.00127348 0)
(0.137002 -0.00124059 0)
(0.137568 -0.00120019 0)
(0.138104 -0.00115119 0)
(0.138608 -0.00109225 0)
(0.139077 -0.00102177 0)
(0.139507 -0.000937833 0)
(0.139895 -0.00083808 0)
(0.140236 -0.000719621 0)
(0.140524 -0.000578873 0)
(0.140755 -0.000411352 0)
(0.140921 -0.000211391 0)
(0.141014 2.8231e-05 0)
(0.141026 0.000316814 0)
(0.140946 0.000666632 0)
(0.140762 0.00109396 0)
(0.140462 0.0016206 0)
(0.140031 0.00227601 0)
(0.139456 0.00310035 0)
(0.138724 0.00414852 0)
(0.137831 0.0054952 0)
(0.136789 0.00724 0)
(0.135642 0.00950908 0)
(0.134493 0.0124438 0)
(0.133543 0.0161535 0)
(0.133142 0.0205661 0)
(0.133779 0.0250232 0)
(0.100021 -8.05851e-05 0)
(0.100137 -0.000154297 0)
(0.100326 -0.000221057 0)
(0.100574 -0.000282471 0)
(0.100875 -0.000339971 0)
(0.101223 -0.000394441 0)
(0.101614 -0.000446471 0)
(0.102043 -0.00049652 0)
(0.102508 -0.000544941 0)
(0.103006 -0.000592007 0)
(0.103534 -0.000637937 0)
(0.10409 -0.000682906 0)
(0.104671 -0.000727054 0)
(0.105276 -0.000770495 0)
(0.105903 -0.000813318 0)
(0.106551 -0.000855592 0)
(0.107218 -0.000897372 0)
(0.107903 -0.000938693 0)
(0.108604 -0.000979581 0)
(0.10932 -0.00102005 0)
(0.11005 -0.0010601 0)
(0.110793 -0.00109972 0)
(0.111548 -0.0011389 0)
(0.112313 -0.00117762 0)
(0.113088 -0.00121583 0)
(0.113872 -0.00125352 0)
(0.114663 -0.00129062 0)
(0.115461 -0.0013271 0)
(0.116264 -0.00136289 0)
(0.117072 -0.00139795 0)
(0.117884 -0.00143221 0)
(0.118699 -0.00146559 0)
(0.119515 -0.00149804 0)
(0.120333 -0.00152946 0)
(0.12115 -0.00155979 0)
(0.121967 -0.00158892 0)
(0.122782 -0.00161676 0)
(0.123594 -0.00164321 0)
(0.124402 -0.00166814 0)
(0.125206 -0.00169143 0)
(0.126004 -0.00171294 0)
(0.126796 -0.0017325 0)
(0.127581 -0.00174994 0)
(0.128357 -0.00176506 0)
(0.129124 -0.00177763 0)
(0.12988 -0.0017874 0)
(0.130625 -0.00179408 0)
(0.131358 -0.00179734 0)
(0.132077 -0.00179682 0)
(0.13278 -0.00179208 0)
(0.133468 -0.00178263 0)
(0.134138 -0.00176792 0)
(0.134789 -0.00174729 0)
(0.135419 -0.00172001 0)
(0.136027 -0.00168518 0)
(0.13661 -0.0016418 0)
(0.137168 -0.00158867 0)
(0.137697 -0.00152437 0)
(0.138194 -0.00144723 0)
(0.138659 -0.00135525 0)
(0.139086 -0.00124602 0)
(0.139474 -0.00111665 0)
(0.139818 -0.000963587 0)
(0.140114 -0.000782495 0)
(0.140357 -0.000568009 0)
(0.140543 -0.000313452 0)
(0.140666 -1.04637e-05 0)
(0.14072 0.000351403 0)
(0.140699 0.000785571 0)
(0.140596 0.00130931 0)
(0.140407 0.00194482 0)
(0.140127 0.00272074 0)
(0.139759 0.00367378 0)
(0.139308 0.00485058 0)
(0.138796 0.00630894 0)
(0.138264 0.00811695 0)
(0.137784 0.0103466 0)
(0.137477 0.0130542 0)
(0.137518 0.0162349 0)
(0.138131 0.0197281 0)
(0.139504 0.0230622 0)
(0.100019 -0.000100109 0)
(0.100132 -0.00019358 0)
(0.100318 -0.00027797 0)
(0.100562 -0.000355708 0)
(0.100858 -0.000428479 0)
(0.101202 -0.000497389 0)
(0.101588 -0.000563191 0)
(0.102013 -0.000626469 0)
(0.102474 -0.00068767 0)
(0.102967 -0.000747143 0)
(0.10349 -0.000805163 0)
(0.104041 -0.000861955 0)
(0.104617 -0.000917695 0)
(0.105217 -0.000972528 0)
(0.105838 -0.00102657 0)
(0.10648 -0.0010799 0)
(0.107141 -0.00113259 0)
(0.10782 -0.00118469 0)
(0.108514 -0.00123624 0)
(0.109224 -0.00128723 0)
(0.109947 -0.00133769 0)
(0.110683 -0.00138759 0)
(0.11143 -0.00143692 0)
(0.112188 -0.00148565 0)
(0.112955 -0.00153373 0)
(0.11373 -0.00158113 0)
(0.114513 -0.00162778 0)
(0.115302 -0.00167362 0)
(0.116096 -0.00171859 0)
(0.116895 -0.0017626 0)
(0.117697 -0.0018056 0)
(0.118502 -0.00184747 0)
(0.119308 -0.00188814 0)
(0.120115 -0.00192751 0)
(0.120922 -0.00196547 0)
(0.121728 -0.00200191 0)
(0.122532 -0.00203671 0)
(0.123332 -0.00206973 0)
(0.124129 -0.00210082 0)
(0.124921 -0.00212983 0)
(0.125707 -0.00215657 0)
(0.126487 -0.00218085 0)
(0.127259 -0.00220244 0)
(0.128022 -0.0022211 0)
(0.128776 -0.00223654 0)
(0.129519 -0.00224846 0)
(0.130251 -0.00225648 0)
(0.130971 -0.00226022 0)
(0.131676 -0.0022592 0)
(0.132367 -0.00225291 0)
(0.133041 -0.00224075 0)
(0.133699 -0.00222203 0)
(0.134337 -0.00219596 0)
(0.134955 -0.00216163 0)
(0.135552 -0.00211799 0)
(0.136124 -0.00206381 0)
(0.136672 -0.00199767 0)
(0.137192 -0.00191789 0)
(0.137684 -0.0018225 0)
(0.138143 -0.00170915 0)
(0.138568 -0.00157506 0)
(0.138957 -0.00141691 0)
(0.139306 -0.00123069 0)
(0.139613 -0.00101155 0)
(0.139874 -0.000753616 0)
(0.140086 -0.000449691 0)
(0.140246 -9.09875e-05 0)
(0.140351 0.000333159 0)
(0.140399 0.000835887 0)
(0.140389 0.00143352 0)
(0.140323 0.0021461 0)
(0.140205 0.00299797 0)
(0.140046 0.00401824 0)
(0.139865 0.00524073 0)
(0.139694 0.00670273 0)
(0.139583 0.00844141 0)
(0.139603 0.0104856 0)
(0.139852 0.0128395 0)
(0.140451 0.0154541 0)
(0.141522 0.0181829 0)
(0.143124 0.0207353 0)
(0.100016 -0.00012022 0)
(0.100127 -0.000234579 0)
(0.100309 -0.00033767 0)
(0.100548 -0.000432781 0)
(0.100839 -0.000521828 0)
(0.101178 -0.000606125 0)
(0.101559 -0.000686597 0)
(0.101979 -0.000763957 0)
(0.102434 -0.000838753 0)
(0.102921 -0.000911412 0)
(0.103438 -0.000982275 0)
(0.103983 -0.00105161 0)
(0.104553 -0.00111965 0)
(0.105146 -0.00118655 0)
(0.105761 -0.00125247 0)
(0.106396 -0.0013175 0)
(0.107049 -0.00138173 0)
(0.10772 -0.00144522 0)
(0.108407 -0.00150801 0)
(0.109108 -0.00157011 0)
(0.109823 -0.00163153 0)
(0.11055 -0.00169225 0)
(0.111288 -0.00175225 0)
(0.112036 -0.0018115 0)
(0.112793 -0.00186994 0)
(0.113559 -0.00192752 0)
(0.114331 -0.00198416 0)
(0.11511 -0.0020398 0)
(0.115893 -0.00209434 0)
(0.116681 -0.00214771 0)
(0.117471 -0.0021998 0)
(0.118264 -0.0022505 0)
(0.119058 -0.00229971 0)
(0.119853 -0.00234731 0)
(0.120647 -0.00239316 0)
(0.12144 -0.00243714 0)
(0.12223 -0.00247909 0)
(0.123017 -0.00251885 0)
(0.123799 -0.00255624 0)
(0.124577 -0.00259106 0)
(0.125349 -0.00262311 0)
(0.126114 -0.00265214 0)
(0.126871 -0.00267789 0)
(0.127619 -0.00270005 0)
(0.128358 -0.0027183 0)
(0.129086 -0.00273225 0)
(0.129803 -0.00274149 0)
(0.130507 -0.00274553 0)
(0.131197 -0.00274383 0)
(0.131872 -0.00273577 0)
(0.132532 -0.00272065 0)
(0.133174 -0.00269767 0)
(0.133799 -0.00266592 0)
(0.134403 -0.00262434 0)
(0.134987 -0.00257171 0)
(0.135548 -0.00250664 0)
(0.136085 -0.00242751 0)
(0.136596 -0.00233242 0)
(0.13708 -0.00221919 0)
(0.137536 -0.00208522 0)
(0.13796 -0.00192748 0)
(0.138351 -0.00174239 0)
(0.138708 -0.00152571 0)
(0.139029 -0.0012724 0)
(0.139311 -0.000976459 0)
(0.139554 -0.000630733 0)
(0.139757 -0.000226718 0)
(0.13992 0.00024559 0)
(0.140043 0.000797837 0)
(0.140131 0.00144391 0)
(0.14019 0.00219993 0)
(0.140229 0.00308419 0)
(0.140265 0.00411668 0)
(0.14032 0.00531811 0)
(0.140429 0.00670771 0)
(0.140636 0.00829934 0)
(0.140998 0.010095 0)
(0.141583 0.0120749 0)
(0.142464 0.0141829 0)
(0.143697 0.0163111 0)
(0.145293 0.0182912 0)
(0.100014 -0.00014094 0)
(0.100123 -0.00027726 0)
(0.100299 -0.000400126 0)
(0.100533 -0.000513663 0)
(0.100819 -0.00062001 0)
(0.101152 -0.000720671 0)
(0.101527 -0.00081674 0)
(0.10194 -0.000909064 0)
(0.102389 -0.000998298 0)
(0.102869 -0.00108495 0)
(0.103379 -0.00116943 0)
(0.103916 -0.00125206 0)
(0.104479 -0.00133311 0)
(0.105064 -0.00141278 0)
(0.105671 -0.00149125 0)
(0.106297 -0.00156863 0)
(0.106942 -0.00164503 0)
(0.107604 -0.00172052 0)
(0.108281 -0.00179514 0)
(0.108973 -0.00186891 0)
(0.109677 -0.00194184 0)
(0.110394 -0.00201392 0)
(0.111121 -0.00208511 0)
(0.111859 -0.00215537 0)
(0.112605 -0.00222464 0)
(0.113358 -0.00229284 0)
(0.114118 -0.00235991 0)
(0.114884 -0.00242575 0)
(0.115655 -0.00249025 0)
(0.116429 -0.00255332 0)
(0.117206 -0.00261483 0)
(0.117986 -0.00267466 0)
(0.118765 -0.00273268 0)
(0.119545 -0.00278875 0)
(0.120325 -0.00284271 0)
(0.121102 -0.00289441 0)
(0.121876 -0.00294366 0)
(0.122648 -0.00299027 0)
(0.123414 -0.00303404 0)
(0.124175 -0.00307474 0)
(0.124931 -0.00311211 0)
(0.125679 -0.00314588 0)
(0.126419 -0.00317573 0)
(0.12715 -0.00320132 0)
(0.127871 -0.00322226 0)
(0.128582 -0.00323812 0)
(0.129281 -0.0032484 0)
(0.129967 -0.00325257 0)
(0.13064 -0.00324999 0)
(0.131299 -0.00323996 0)
(0.131941 -0.0032217 0)
(0.132568 -0.0031943 0)
(0.133176 -0.00315673 0)
(0.133766 -0.00310782 0)
(0.134335 -0.00304624 0)
(0.134884 -0.00297044 0)
(0.13541 -0.00287868 0)
(0.135912 -0.00276891 0)
(0.13639 -0.00263882 0)
(0.136841 -0.00248568 0)
(0.137266 -0.00230636 0)
(0.137662 -0.00209723 0)
(0.138028 -0.00185406 0)
(0.138365 -0.00157193 0)
(0.138672 -0.00124514 0)
(0.13895 -0.0008671 0)
(0.139199 -0.000430194 0)
(0.139421 7.42676e-05 0)
(0.139621 0.000655634 0)
(0.139805 0.00132447 0)
(0.139981 0.00209229 0)
(0.140162 0.00297105 0)
(0.140366 0.00397228 0)
(0.140613 0.00510584 0)
(0.140934 0.00637788 0)
(0.141363 0.00778792 0)
(0.141939 0.0093248 0)
(0.142707 0.0109617 0)
(0.143703 0.0126507 0)
(0.144952 0.0143191 0)
(0.146445 0.0158721 0)
(0.100012 -0.000162293 0)
(0.100118 -0.0003216 0)
(0.10029 -0.000465309 0)
(0.100518 -0.00059832 0)
(0.100798 -0.000723002 0)
(0.101124 -0.00084102 0)
(0.101492 -0.000953635 0)
(0.101898 -0.00106183 0)
(0.102339 -0.00116637 0)
(0.102811 -0.00126784 0)
(0.103313 -0.00136673 0)
(0.103842 -0.00146342 0)
(0.104395 -0.00155821 0)
(0.104971 -0.00165136 0)
(0.105569 -0.00174305 0)
(0.106185 -0.00183343 0)
(0.10682 -0.00192263 0)
(0.107471 -0.00201073 0)
(0.108138 -0.00209777 0)
(0.108818 -0.00218378 0)
(0.109511 -0.00226877 0)
(0.110216 -0.00235272 0)
(0.110931 -0.00243559 0)
(0.111655 -0.00251733 0)
(0.112388 -0.00259787 0)
(0.113128 -0.00267714 0)
(0.113875 -0.00275502 0)
(0.114626 -0.00283143 0)
(0.115382 -0.00290623 0)
(0.116141 -0.00297932 0)
(0.116903 -0.00305054 0)
(0.117666 -0.00311976 0)
(0.11843 -0.00318682 0)
(0.119193 -0.00325155 0)
(0.119955 -0.00331379 0)
(0.120715 -0.00337333 0)
(0.121472 -0.00342998 0)
(0.122225 -0.00348352 0)
(0.122974 -0.00353371 0)
(0.123716 -0.00358027 0)
(0.124453 -0.00362294 0)
(0.125182 -0.00366138 0)
(0.125903 -0.00369524 0)
(0.126614 -0.00372414 0)
(0.127316 -0.00374763 0)
(0.128008 -0.00376523 0)
(0.128687 -0.00377639 0)
(0.129355 -0.0037805 0)
(0.130008 -0.00377687 0)
(0.130648 -0.00376473 0)
(0.131273 -0.0037432 0)
(0.131881 -0.00371131 0)
(0.132473 -0.00366794 0)
(0.133047 -0.00361184 0)
(0.133602 -0.00354158 0)
(0.134137 -0.00345555 0)
(0.134652 -0.00335192 0)
(0.135145 -0.00322861 0)
(0.135617 -0.00308323 0)
(0.136065 -0.0029131 0)
(0.13649 -0.00271515 0)
(0.136892 -0.00248586 0)
(0.13727 -0.00222129 0)
(0.137625 -0.00191694 0)
(0.137958 -0.00156776 0)
(0.138271 -0.0011681 0)
(0.138566 -0.000711717 0)
(0.138847 -0.000191776 0)
(0.13912 0.000398882 0)
(0.139391 0.00106706 0)
(0.139671 0.00181982 0)
(0.139972 0.00266357 0)
(0.140309 0.00360319 0)
(0.140701 0.00464093 0)
(0.14117 0.00577498 0)
(0.141741 0.0069977 0)
(0.14244 0.00829361 0)
(0.143289 0.00963748 0)
(0.144308 0.010993 0)
(0.145503 0.0123135 0)
(0.146862 0.0135455 0)
(0.100009 -0.000184306 0)
(0.100113 -0.000367579 0)
(0.10028 -0.000533188 0)
(0.100502 -0.000686712 0)
(0.100775 -0.00083076 0)
(0.101094 -0.000967137 0)
(0.101454 -0.00109726 0)
(0.101852 -0.00122224 0)
(0.102284 -0.00134296 0)
(0.102748 -0.0014601 0)
(0.103241 -0.00157421 0)
(0.103759 -0.00168572 0)
(0.104303 -0.001795 0)
(0.104869 -0.00190232 0)
(0.105455 -0.00200792 0)
(0.106061 -0.00211197 0)
(0.106684 -0.0022146 0)
(0.107323 -0.0023159 0)
(0.107977 -0.00241593 0)
(0.108645 -0.00251473 0)
(0.109325 -0.0026123 0)
(0.110016 -0.00270862 0)
(0.110717 -0.00280365 0)
(0.111427 -0.00289732 0)
(0.112144 -0.00298956 0)
(0.112869 -0.00308026 0)
(0.1136 -0.00316933 0)
(0.114335 -0.00325664 0)
(0.115074 -0.00334205 0)
(0.115817 -0.00342543 0)
(0.116561 -0.0035066 0)
(0.117306 -0.00358541 0)
(0.118052 -0.00366169 0)
(0.118796 -0.00373523 0)
(0.11954 -0.00380585 0)
(0.12028 -0.00387332 0)
(0.121017 -0.00393741 0)
(0.121751 -0.00399788 0)
(0.122479 -0.00405446 0)
(0.123201 -0.00410685 0)
(0.123916 -0.00415472 0)
(0.124624 -0.00419773 0)
(0.125324 -0.00423548 0)
(0.126015 -0.00426753 0)
(0.126695 -0.00429341 0)
(0.127365 -0.00431259 0)
(0.128024 -0.00432446 0)
(0.12867 -0.00432836 0)
(0.129304 -0.00432355 0)
(0.129923 -0.00430921 0)
(0.130528 -0.0042844 0)
(0.131118 -0.00424809 0)
(0.131692 -0.00419912 0)
(0.132249 -0.00413619 0)
(0.132789 -0.00405784 0)
(0.133311 -0.00396243 0)
(0.133814 -0.00384815 0)
(0.134299 -0.00371292 0)
(0.134764 -0.00355447 0)
(0.13521 -0.00337023 0)
(0.135637 -0.00315734 0)
(0.136045 -0.00291263 0)
(0.136436 -0.00263262 0)
(0.136809 -0.00231346 0)
(0.137168 -0.00195102 0)
(0.137515 -0.00154083 0)
(0.137853 -0.00107823 0)
(0.138187 -0.000558402 0)
(0.138524 2.35411e-05 0)
(0.13887 0.000671528 0)
(0.139235 0.0013886 0)
(0.139629 0.00217693 0)
(0.140065 0.00303684 0)
(0.140558 0.00396604 0)
(0.141122 0.0049588 0)
(0.141775 0.00600505 0)
(0.142529 0.00708968 0)
(0.143399 0.00819212 0)
(0.14439 0.0092866 0)
(0.145503 0.0103435 0)
(0.146726 0.0113328 0)
(0.100006 -0.000207001 0)
(0.100108 -0.000415179 0)
(0.10027 -0.000603728 0)
(0.100486 -0.000778787 0)
(0.100752 -0.000943221 0)
(0.101063 -0.00109895 0)
(0.101414 -0.00124755 0)
(0.101803 -0.00139024 0)
(0.102226 -0.00152803 0)
(0.102679 -0.00166168 0)
(0.103162 -0.00179181 0)
(0.10367 -0.00191893 0)
(0.104202 -0.00204343 0)
(0.104756 -0.00216564 0)
(0.10533 -0.00228583 0)
(0.105923 -0.00240418 0)
(0.106533 -0.00252085 0)
(0.107159 -0.00263595 0)
(0.107799 -0.00274953 0)
(0.108452 -0.00286165 0)
(0.109117 -0.0029723 0)
(0.109793 -0.00308146 0)
(0.110478 -0.00318909 0)
(0.111172 -0.0032951 0)
(0.111873 -0.00339941 0)
(0.112581 -0.00350192 0)
(0.113294 -0.00360249 0)
(0.114011 -0.00370099 0)
(0.114732 -0.00379726 0)
(0.115455 -0.00389114 0)
(0.11618 -0.00398246 0)
(0.116906 -0.00407102 0)
(0.117631 -0.00415663 0)
(0.118355 -0.00423907 0)
(0.119077 -0.00431811 0)
(0.119797 -0.00439353 0)
(0.120512 -0.00446505 0)
(0.121223 -0.00453241 0)
(0.121929 -0.00459531 0)
(0.122629 -0.00465341 0)
(0.123322 -0.00470636 0)
(0.124007 -0.00475379 0)
(0.124684 -0.00479526 0)
(0.125351 -0.0048303 0)
(0.126009 -0.00485839 0)
(0.126657 -0.00487898 0)
(0.127293 -0.00489141 0)
(0.127917 -0.00489499 0)
(0.128528 -0.00488895 0)
(0.129126 -0.00487242 0)
(0.129711 -0.00484445 0)
(0.130281 -0.00480397 0)
(0.130836 -0.00474982 0)
(0.131376 -0.00468069 0)
(0.1319 -0.00459515 0)
(0.132408 -0.0044916 0)
(0.1329 -0.00436829 0)
(0.133376 -0.00422331 0)
(0.133835 -0.00405452 0)
(0.134279 -0.00385963 0)
(0.134708 -0.00363612 0)
(0.135122 -0.00338131 0)
(0.135524 -0.0030923 0)
(0.135915 -0.00276608 0)
(0.136297 -0.00239951 0)
(0.136674 -0.00198943 0)
(0.13705 -0.00153273 0)
(0.13743 -0.00102651 0)
(0.137818 -0.000468121 0)
(0.138224 0.000144656 0)
(0.138653 0.000811954 0)
(0.139114 0.00153283 0)
(0.139617 0.00230493 0)
(0.140173 0.00312378 0)
(0.14079 0.00398237 0)
(0.141479 0.00487085 0)
(0.142247 0.00577642 0)
(0.1431 0.00668352 0)
(0.144039 0.00757447 0)
(0.14506 0.00843069 0)
(0.146156 0.00923489 0)
(0.100003 -0.000230395 0)
(0.100103 -0.000464373 0)
(0.100261 -0.000676876 0)
(0.10047 -0.000874474 0)
(0.100727 -0.00106029 0)
(0.10103 -0.00123637 0)
(0.101372 -0.00140438 0)
(0.101751 -0.00156571 0)
(0.102163 -0.00172144 0)
(0.102606 -0.00187244 0)
(0.103076 -0.0020194 0)
(0.103572 -0.00216289 0)
(0.104092 -0.00230335 0)
(0.104633 -0.00244115 0)
(0.105194 -0.00257658 0)
(0.105773 -0.00270987 0)
(0.106368 -0.00284118 0)
(0.106979 -0.00297063 0)
(0.107604 -0.00309831 0)
(0.108241 -0.00322424 0)
(0.10889 -0.00334844 0)
(0.109549 -0.00347088 0)
(0.110216 -0.00359151 0)
(0.110892 -0.00371023 0)
(0.111575 -0.00382696 0)
(0.112264 -0.00394156 0)
(0.112957 -0.0040539 0)
(0.113655 -0.00416383 0)
(0.114355 -0.00427116 0)
(0.115058 -0.00437572 0)
(0.115761 -0.00447731 0)
(0.116465 -0.00457571 0)
(0.117168 -0.00467071 0)
(0.11787 -0.00476207 0)
(0.118569 -0.00484954 0)
(0.119265 -0.00493285 0)
(0.119957 -0.00501173 0)
(0.120644 -0.00508588 0)
(0.121326 -0.00515496 0)
(0.122002 -0.00521862 0)
(0.12267 -0.00527649 0)
(0.123331 -0.00532815 0)
(0.123983 -0.00537315 0)
(0.124626 -0.005411 0)
(0.125259 -0.00544114 0)
(0.125882 -0.00546298 0)
(0.126494 -0.00547588 0)
(0.127095 -0.0054791 0)
(0.127683 -0.00547185 0)
(0.128259 -0.00545327 0)
(0.128822 -0.00542241 0)
(0.129371 -0.0053782 0)
(0.129907 -0.00531951 0)
(0.130429 -0.00524509 0)
(0.130938 -0.00515357 0)
(0.131432 -0.00504347 0)
(0.131912 -0.00491319 0)
(0.132378 -0.004761 0)
(0.132831 -0.00458506 0)
(0.133272 -0.00438339 0)
(0.133702 -0.00415395 0)
(0.134122 -0.00389458 0)
(0.134533 -0.00360311 0)
(0.134939 -0.00327734 0)
(0.135341 -0.00291516 0)
(0.135743 -0.00251461 0)
(0.136148 -0.00207398 0)
(0.136562 -0.00159197 0)
(0.13699 -0.00106776 0)
(0.137437 -0.000501058 0)
(0.137909 0.000107826 0)
(0.138414 0.000756132 0)
(0.138956 0.00143967 0)
(0.139544 0.00215329 0)
(0.140182 0.00289026 0)
(0.140877 0.0036421 0)
(0.14163 0.00439878 0)
(0.142445 0.00514903 0)
(0.14332 0.00588092 0)
(0.144252 0.00658278 0)
(0.145232 0.00724454 0)
(0.1 -0.000254489 0)
(0.100098 -0.000515126 0)
(0.100251 -0.00075256 0)
(0.100453 -0.000973671 0)
(0.100702 -0.00118185 0)
(0.100995 -0.00137922 0)
(0.101328 -0.00156759 0)
(0.101696 -0.00174845 0)
(0.102097 -0.00192299 0)
(0.102527 -0.00209217 0)
(0.102985 -0.00225674 0)
(0.103468 -0.00241734 0)
(0.103974 -0.00257447 0)
(0.1045 -0.00272854 0)
(0.105046 -0.00287986 0)
(0.10561 -0.00302868 0)
(0.10619 -0.0031752 0)
(0.106784 -0.00331954 0)
(0.107391 -0.0034618 0)
(0.108011 -0.00360202 0)
(0.108642 -0.0037402 0)
(0.109282 -0.0038763 0)
(0.10993 -0.00401028 0)
(0.110586 -0.00414204 0)
(0.111249 -0.00427146 0)
(0.111917 -0.00439841 0)
(0.112589 -0.00452274 0)
(0.113265 -0.00464426 0)
(0.113943 -0.00476279 0)
(0.114623 -0.00487813 0)
(0.115303 -0.00499005 0)
(0.115983 -0.00509832 0)
(0.116662 -0.0052027 0)
(0.11734 -0.00530294 0)
(0.118014 -0.00539875 0)
(0.118685 -0.00548986 0)
(0.119352 -0.00557596 0)
(0.120013 -0.00565673 0)
(0.120669 -0.00573182 0)
(0.121318 -0.00580085 0)
(0.121961 -0.00586343 0)
(0.122595 -0.00591912 0)
(0.123221 -0.00596745 0)
(0.123838 -0.00600791 0)
(0.124446 -0.00603995 0)
(0.125043 -0.00606295 0)
(0.12563 -0.00607625 0)
(0.126205 -0.00607914 0)
(0.12677 -0.00607084 0)
(0.127322 -0.00605048 0)
(0.127863 -0.00601715 0)
(0.128391 -0.00596986 0)
(0.128907 -0.00590751 0)
(0.129411 -0.00582896 0)
(0.129902 -0.00573297 0)
(0.130382 -0.00561822 0)
(0.130849 -0.00548331 0)
(0.131306 -0.00532678 0)
(0.131752 -0.00514711 0)
(0.13219 -0.00494275 0)
(0.132619 -0.00471211 0)
(0.133041 -0.00445364 0)
(0.13346 -0.00416585 0)
(0.133876 -0.00384735 0)
(0.134292 -0.00349693 0)
(0.134712 -0.00311366 0)
(0.135138 -0.00269696 0)
(0.135576 -0.0022467 0)
(0.136028 -0.0017633 0)
(0.1365 -0.0012478 0)
(0.136996 -0.000701843 0)
(0.137522 -0.000127516 0)
(0.138081 0.000471494 0)
(0.138677 0.00108899 0)
(0.139313 0.00171902 0)
(0.139992 0.00235478 0)
(0.140714 0.00298882 0)
(0.14148 0.00361322 0)
(0.142287 0.00422002 0)
(0.143132 0.00480183 0)
(0.14401 0.00535274 0)
(0.0999971 -0.000279275 0)
(0.100093 -0.000567381 0)
(0.10024 -0.000830677 0)
(0.100435 -0.00107624 0)
(0.100676 -0.0013077 0)
(0.10096 -0.0015273 0)
(0.101281 -0.00173692 0)
(0.101638 -0.00193818 0)
(0.102026 -0.00213236 0)
(0.102444 -0.00232051 0)
(0.102888 -0.00250346 0)
(0.103356 -0.0026819 0)
(0.103847 -0.00285638 0)
(0.104358 -0.00302734 0)
(0.104888 -0.00319515 0)
(0.105434 -0.00336008 0)
(0.105996 -0.00352233 0)
(0.106572 -0.00368205 0)
(0.107161 -0.00383935 0)
(0.107762 -0.00399425 0)
(0.108372 -0.00414678 0)
(0.108992 -0.00429689 0)
(0.10962 -0.00444452 0)
(0.110254 -0.00458957 0)
(0.110895 -0.00473191 0)
(0.11154 -0.00487139 0)
(0.112189 -0.00500784 0)
(0.112841 -0.00514107 0)
(0.113495 -0.00527086 0)
(0.11415 -0.005397 0)
(0.114806 -0.00551924 0)
(0.11546 -0.00563733 0)
(0.116113 -0.00575102 0)
(0.116764 -0.00586001 0)
(0.117412 -0.00596403 0)
(0.118056 -0.00606277 0)
(0.118696 -0.00615589 0)
(0.11933 -0.00624307 0)
(0.119958 -0.00632393 0)
(0.12058 -0.00639809 0)
(0.121194 -0.00646514 0)
(0.121801 -0.00652464 0)
(0.122399 -0.00657609 0)
(0.122988 -0.006619 0)
(0.123568 -0.0066528 0)
(0.124139 -0.00667689 0)
(0.124699 -0.00669063 0)
(0.125249 -0.00669332 0)
(0.125788 -0.0066842 0)
(0.126317 -0.00666248 0)
(0.126834 -0.0066273 0)
(0.12734 -0.00657773 0)
(0.127836 -0.00651282 0)
(0.12832 -0.00643153 0)
(0.128794 -0.00633279 0)
(0.129258 -0.00621549 0)
(0.129713 -0.0060785 0)
(0.130159 -0.00592063 0)
(0.130597 -0.00574074 0)
(0.131028 -0.00553769 0)
(0.131454 -0.00531038 0)
(0.131877 -0.00505782 0)
(0.132298 -0.00477914 0)
(0.132719 -0.00447365 0)
(0.133143 -0.00414089 0)
(0.133573 -0.00378072 0)
(0.134011 -0.00339335 0)
(0.134461 -0.00297944 0)
(0.134925 -0.00254015 0)
(0.135408 -0.00207718 0)
(0.135912 -0.00159281 0)
(0.13644 -0.00108981 0)
(0.136995 -0.000571337 0)
(0.137581 -4.05375e-05 0)
(0.138199 0.000497373 0)
(0.138848 0.00103605 0)
(0.139529 0.0015698 0)
(0.14024 0.00209309 0)
(0.140979 0.00260066 0)
(0.141744 0.0030879 0)
(0.142529 0.00355141 0)
(0.0999936 -0.000304726 0)
(0.100087 -0.000621058 0)
(0.10023 -0.000911084 0)
(0.100417 -0.00118198 0)
(0.100649 -0.0014376 0)
(0.100922 -0.0016803 0)
(0.101233 -0.00191203 0)
(0.101577 -0.0021345 0)
(0.101952 -0.00234912 0)
(0.102355 -0.00255699 0)
(0.102784 -0.00275903 0)
(0.103237 -0.00295597 0)
(0.103711 -0.00314844 0)
(0.104205 -0.0033369 0)
(0.104717 -0.00352175 0)
(0.105245 -0.00370329 0)
(0.105788 -0.00388174 0)
(0.106345 -0.00405728 0)
(0.106913 -0.00423 0)
(0.107493 -0.00439995 0)
(0.108082 -0.00456713 0)
(0.108679 -0.00473152 0)
(0.109284 -0.00489302 0)
(0.109895 -0.00505155 0)
(0.110512 -0.00520695 0)
(0.111132 -0.00535906 0)
(0.111756 -0.0055077 0)
(0.112383 -0.00565265 0)
(0.113011 -0.00579369 0)
(0.113639 -0.00593057 0)
(0.114268 -0.00606304 0)
(0.114895 -0.00619083 0)
(0.11552 -0.00631366 0)
(0.116143 -0.00643123 0)