/*--------------------------------*- C++ -*----------------------------------*\
| =========                 |                                                 |
| \\      /  F ield         | OpenFOAM: The Open Source CFD Toolbox           |
|  \\    /   O peration     | Version:  2112                                  |
|   \\  /    A nd           | Website:  www.openfoam.com                      |
|    \\/     M anipulation  |                                                 |
\*---------------------------------------------------------------------------*/
FoamFile
{
    version     2.0;
    format      ascii;
    arch        "LSB;label=32;scalar=64";
    class       surfaceScalarField;
    location    "8";
    object      phi;
}
// * * * * * * * * * * * * * * * * * * * * * * * * * * * * * * * * * * * * * //

dimensions      [1 0 -1 0 0 0 0];

oriented        oriented;

internalField   nonuniform List<scalar> 
23692
(
2.32959e-06
-2.60826e-09
2.33432e-06
-4.72429e-09
2.34093e-06
-6.6108e-09
2.3492e-06
-8.27336e-09
2.35897e-06
-9.76349e-09
2.37008e-06
-1.11122e-08
2.38242e-06
-1.23406e-08
2.39589e-06
-1.3465e-08
2.41039e-06
-1.44984e-08
2.42584e-06
-1.54511e-08
2.44217e-06
-1.63313e-08
2.45932e-06
-1.7146e-08
2.47722e-06
-1.79011e-08
2.49583e-06
-1.86015e-08
2.51508e-06
-1.92512e-08
2.53494e-06
-1.98539e-08
2.55535e-06
-2.04126e-08
2.57628e-06
-2.093e-08
2.59769e-06
-2.14083e-08
2.61955e-06
-2.18495e-08
2.6418e-06
-2.22553e-08
2.66443e-06
-2.26274e-08
2.6874e-06
-2.29668e-08
2.71068e-06
-2.3275e-08
2.73424e-06
-2.35528e-08
2.75804e-06
-2.38012e-08
2.78206e-06
-2.40209e-08
2.80628e-06
-2.42127e-08
2.83066e-06
-2.43771e-08
2.85517e-06
-2.45147e-08
2.8798e-06
-2.46259e-08
2.90452e-06
-2.4711e-08
2.92929e-06
-2.47704e-08
2.9541e-06
-2.48043e-08
2.97891e-06
-2.48129e-08
3.00371e-06
-2.47962e-08
3.02846e-06
-2.47542e-08
3.05315e-06
-2.4687e-08
3.07775e-06
-2.45944e-08
3.10223e-06
-2.44761e-08
3.12656e-06
-2.43319e-08
3.15073e-06
-2.41613e-08
3.17469e-06
-2.39638e-08
3.19843e-06
-2.37388e-08
3.22192e-06
-2.34854e-08
3.24512e-06
-2.32025e-08
3.26801e-06
-2.28892e-08
3.29056e-06
-2.25439e-08
3.31272e-06
-2.21649e-08
3.33448e-06
-2.17504e-08
3.35577e-06
-2.12979e-08
3.37658e-06
-2.08048e-08
3.39685e-06
-2.02678e-08
3.41653e-06
-1.9683e-08
3.43558e-06
-1.90458e-08
3.45393e-06
-1.83507e-08
3.47152e-06
-1.75913e-08
3.48828e-06
-1.67597e-08
3.50413e-06
-1.58462e-08
3.51897e-06
-1.48393e-08
3.5327e-06
-1.37247e-08
3.54518e-06
-1.24849e-08
3.55628e-06
-1.10977e-08
3.56581e-06
-9.53536e-09
3.57358e-06
-7.76251e-09
3.57931e-06
-5.73336e-09
3.5827e-06
-3.38801e-09
3.58335e-06
-6.47169e-10
3.58075e-06
2.59809e-09
3.57425e-06
6.49913e-09
3.56298e-06
1.12717e-08
3.54575e-06
1.72297e-08
3.5209e-06
2.48425e-08
3.48607e-06
3.48336e-08
3.43772e-06
4.8351e-08
3.37045e-06
6.72697e-08
3.27572e-06
9.47275e-08
3.13959e-06
1.36129e-07
2.93811e-06
2.0148e-07
2.62668e-06
3.11427e-07
5.25597e-07
2.10109e-06
2.4927e-06
-5.33015e-09
2.49772e-06
-9.75104e-09
2.50477e-06
-1.36621e-08
2.5136e-06
-1.71027e-08
2.52403e-06
-2.01875e-08
2.5359e-06
-2.29796e-08
2.54908e-06
-2.55221e-08
2.56347e-06
-2.78492e-08
2.57896e-06
-2.99879e-08
2.59547e-06
-3.19591e-08
2.61292e-06
-3.37805e-08
2.63124e-06
-3.54663e-08
2.65037e-06
-3.70286e-08
2.67025e-06
-3.84775e-08
2.69082e-06
-3.98216e-08
2.71204e-06
-4.10683e-08
2.73385e-06
-4.22239e-08
2.75622e-06
-4.32939e-08
2.77909e-06
-4.4283e-08
2.80244e-06
-4.51953e-08
2.82622e-06
-4.60344e-08
2.8504e-06
-4.68034e-08
2.87494e-06
-4.75052e-08
2.89981e-06
-4.8142e-08
2.92498e-06
-4.87159e-08
2.95041e-06
-4.9229e-08
2.97607e-06
-4.96827e-08
3.00194e-06
-5.00786e-08
3.02798e-06
-5.04178e-08
3.05417e-06
-5.07014e-08
3.08048e-06
-5.09303e-08
3.10688e-06
-5.11054e-08
3.13334e-06
-5.12271e-08
3.15983e-06
-5.12961e-08
3.18633e-06
-5.13126e-08
3.21282e-06
-5.12768e-08
3.23925e-06
-5.11888e-08
3.26562e-06
-5.10485e-08
3.29188e-06
-5.08557e-08
3.31802e-06
-5.06097e-08
3.344e-06
-5.03101e-08
3.36979e-06
-4.9956e-08
3.39538e-06
-4.95463e-08
3.42072e-06
-4.90795e-08
3.44579e-06
-4.85541e-08
3.47056e-06
-4.79681e-08
3.49499e-06
-4.73189e-08
3.51905e-06
-4.66038e-08
3.54271e-06
-4.58193e-08
3.56592e-06
-4.49615e-08
3.58865e-06
-4.40255e-08
3.61085e-06
-4.30057e-08
3.63248e-06
-4.18956e-08
3.65348e-06
-4.06872e-08
3.67381e-06
-3.93712e-08
3.6934e-06
-3.79366e-08
3.71217e-06
-3.637e-08
3.73007e-06
-3.46556e-08
3.747e-06
-3.27739e-08
3.76286e-06
-3.07017e-08
3.77755e-06
-2.84102e-08
3.79093e-06
-2.58642e-08
3.80285e-06
-2.30197e-08
3.81314e-06
-1.98214e-08
3.82157e-06
-1.61994e-08
3.8279e-06
-1.20635e-08
3.83181e-06
-7.29704e-09
3.83291e-06
-1.74593e-09
3.83071e-06
4.79635e-09
3.8246e-06
1.2614e-08
3.81377e-06
2.21046e-08
3.79716e-06
3.38329e-08
3.77339e-06
4.86192e-08
3.74054e-06
6.76797e-08
3.69604e-06
9.2851e-08
3.63636e-06
1.26945e-07
3.55683e-06
1.74264e-07
3.45166e-06
2.413e-07
3.31545e-06
3.37681e-07
3.15153e-06
4.75351e-07
6.50313e-07
3.02681e-06
2.6672e-06
-8.14914e-09
2.67252e-06
-1.50737e-08
2.68001e-06
-2.11486e-08
2.6894e-06
-2.64961e-08
2.7005e-06
-3.12887e-08
2.71315e-06
-3.56253e-08
2.7272e-06
-3.95734e-08
2.74254e-06
-4.31868e-08
2.75906e-06
-4.65069e-08
2.77667e-06
-4.9567e-08
2.79529e-06
-5.2394e-08
2.81483e-06
-5.50103e-08
2.83524e-06
-5.74346e-08
2.85645e-06
-5.96827e-08
2.8784e-06
-6.1768e-08
2.90103e-06
-6.37019e-08
2.9243e-06
-6.54942e-08
2.94817e-06
-6.71535e-08
2.97257e-06
-6.86871e-08
2.99748e-06
-7.01014e-08
3.02285e-06
-7.14018e-08
3.04864e-06
-7.25935e-08
3.07482e-06
-7.36804e-08
3.10135e-06
-7.46666e-08
3.12819e-06
-7.55551e-08
3.15531e-06
-7.6349e-08
3.18269e-06
-7.70506e-08
3.21027e-06
-7.76624e-08
3.23804e-06
-7.81861e-08
3.26597e-06
-7.86234e-08
3.29402e-06
-7.89758e-08
3.32216e-06
-7.92445e-08
3.35036e-06
-7.94305e-08
3.3786e-06
-7.95344e-08
3.40685e-06
-7.95568e-08
3.43508e-06
-7.94981e-08
3.46325e-06
-7.93583e-08
3.49134e-06
-7.91373e-08
3.51932e-06
-7.88347e-08
3.54716e-06
-7.84497e-08
3.57484e-06
-7.79816e-08
3.60231e-06
-7.74288e-08
3.62956e-06
-7.67899e-08
3.65654e-06
-7.60626e-08
3.68323e-06
-7.52445e-08
3.7096e-06
-7.43325e-08
3.7356e-06
-7.33229e-08
3.76121e-06
-7.22112e-08
3.78639e-06
-7.09925e-08
3.81109e-06
-6.96605e-08
3.83527e-06
-6.8208e-08
3.85889e-06
-6.66266e-08
3.88191e-06
-6.4906e-08
3.90425e-06
-6.30346e-08
3.92588e-06
-6.09981e-08
3.94673e-06
-5.878e-08
3.96672e-06
-5.63601e-08
3.98578e-06
-5.37147e-08
4.00382e-06
-5.0815e-08
4.02074e-06
-4.76261e-08
4.03644e-06
-4.41056e-08
4.05078e-06
-4.02015e-08
4.06361e-06
-3.58493e-08
4.07476e-06
-3.09688e-08
4.08401e-06
-2.54588e-08
4.09114e-06
-1.91909e-08
4.09585e-06
-1.19997e-08
4.09777e-06
-3.67078e-09
4.09649e-06
6.07712e-09
4.09148e-06
1.76213e-08
4.08211e-06
3.14757e-08
4.0676e-06
4.8346e-08
4.047e-06
6.92122e-08
4.01924e-06
9.54483e-08
3.9831e-06
1.28987e-07
3.93752e-06
1.72526e-07
3.88206e-06
2.2972e-07
3.8182e-06
3.05158e-07
3.75232e-06
4.0356e-07
3.70205e-06
5.25624e-07
6.53227e-07
3.69913e-06
2.8539e-06
-1.10583e-08
2.85951e-06
-2.06787e-08
2.86743e-06
-2.90658e-08
2.87739e-06
-3.64571e-08
2.88918e-06
-4.30785e-08
2.90262e-06
-4.90679e-08
2.91757e-06
-5.45195e-08
2.93389e-06
-5.95078e-08
2.95148e-06
-6.40906e-08
2.97023e-06
-6.83136e-08
2.99005e-06
-7.22144e-08
3.01086e-06
-7.58239e-08
3.0326e-06
-7.9168e-08
3.05519e-06
-8.22685e-08
3.07857e-06
-8.51439e-08
3.10268e-06
-8.781e-08
3.12747e-06
-9.02805e-08
3.15288e-06
-9.25671e-08
3.17888e-06
-9.468e-08
3.20541e-06
-9.66278e-08
3.23243e-06
-9.84185e-08
3.25989e-06
-1.00059e-07
3.28777e-06
-1.01554e-07
3.31602e-06
-1.02911e-07
3.3446e-06
-1.04132e-07
3.37347e-06
-1.05222e-07
3.40261e-06
-1.06186e-07
3.43198e-06
-1.07024e-07
3.46154e-06
-1.07742e-07
3.49125e-06
-1.08339e-07
3.5211e-06
-1.0882e-07
3.55105e-06
-1.09185e-07
3.58105e-06
-1.09435e-07
3.61109e-06
-1.09573e-07
3.64114e-06
-1.09598e-07
3.67115e-06
-1.0951e-07
3.70111e-06
-1.09311e-07
3.73097e-06
-1.09e-07
3.76072e-06
-1.08576e-07
3.79031e-06
-1.08039e-07
3.81972e-06
-1.07387e-07
3.84891e-06
-1.06618e-07
3.87785e-06
-1.05731e-07
3.90651e-06
-1.04722e-07
3.93486e-06
-1.03589e-07
3.96285e-06
-1.02326e-07
3.99046e-06
-1.00929e-07
4.01765e-06
-9.93926e-08
4.04436e-06
-9.77093e-08
4.07058e-06
-9.58709e-08
4.09624e-06
-9.3868e-08
4.1213e-06
-9.1689e-08
4.14572e-06
-8.93208e-08
4.16943e-06
-8.67474e-08
4.19238e-06
-8.39503e-08
4.21451e-06
-8.09074e-08
4.23575e-06
-7.75924e-08
4.25601e-06
-7.39741e-08
4.27521e-06
-7.00149e-08
4.29325e-06
-6.56698e-08
4.31003e-06
-6.08841e-08
4.32542e-06
-5.55913e-08
4.33928e-06
-4.97097e-08
4.35145e-06
-4.31387e-08
4.36175e-06
-3.57527e-08
4.36995e-06
-2.73947e-08
4.37582e-06
-1.78658e-08
4.37906e-06
-6.91309e-09
4.37935e-06
5.78603e-09
4.37632e-06
2.06485e-08
4.36957e-06
3.82226e-08
4.35869e-06
5.92282e-08
4.34329e-06
8.46096e-08
4.32314e-06
1.156e-07
4.29834e-06
1.53786e-07
4.26973e-06
2.01137e-07
4.23953e-06
2.59917e-07
4.21243e-06
3.32264e-07
4.19701e-06
4.18976e-07
4.20625e-06
5.16391e-07
6.0976e-07
4.24971e-06
3.05368e-06
-1.40543e-08
3.05955e-06
-2.65546e-08
3.0679e-06
-3.74075e-08
3.07843e-06
-4.69858e-08
3.09091e-06
-5.55644e-08
3.10517e-06
-6.33214e-08
3.12103e-06
-7.03804e-08
3.13836e-06
-7.6838e-08
3.15704e-06
-8.27692e-08
3.17696e-06
-8.82338e-08
3.19803e-06
-9.32802e-08
3.22016e-06
-9.79489e-08
3.24327e-06
-1.02273e-07
3.26728e-06
-1.06282e-07
3.29214e-06
-1.09998e-07
3.31778e-06
-1.13444e-07
3.34413e-06
-1.16635e-07
3.37116e-06
-1.19589e-07
3.3988e-06
-1.22316e-07
3.427e-06
-1.2483e-07
3.45573e-06
-1.27141e-07
3.48493e-06
-1.29256e-07
3.51456e-06
-1.31184e-07
3.54458e-06
-1.32931e-07
3.57496e-06
-1.34503e-07
3.60564e-06
-1.35905e-07
3.6366e-06
-1.37143e-07
3.6678e-06
-1.38219e-07
3.6992e-06
-1.39138e-07
3.73077e-06
-1.39902e-07
3.76246e-06
-1.40514e-07
3.79426e-06
-1.40977e-07
3.82612e-06
-1.41291e-07
3.85801e-06
-1.41458e-07
3.88989e-06
-1.4148e-07
3.92174e-06
-1.41357e-07
3.95352e-06
-1.41089e-07
3.9852e-06
-1.40677e-07
4.01675e-06
-1.40118e-07
4.04812e-06
-1.39413e-07
4.0793e-06
-1.3856e-07
4.11024e-06
-1.37557e-07
4.14091e-06
-1.364e-07
4.17128e-06
-1.35087e-07
4.2013e-06
-1.33613e-07
4.23095e-06
-1.31973e-07
4.26019e-06
-1.30161e-07
4.28897e-06
-1.2817e-07
4.31725e-06
-1.2599e-07
4.34499e-06
-1.23613e-07
4.37215e-06
-1.21025e-07
4.39868e-06
-1.18214e-07
4.42452e-06
-1.15162e-07
4.44962e-06
-1.1185e-07
4.47393e-06
-1.08256e-07
4.49737e-06
-1.04352e-07
4.51989e-06
-1.00107e-07
4.5414e-06
-9.54836e-08
4.56182e-06
-9.04366e-08
4.58107e-06
-8.49125e-08
4.59903e-06
-7.88472e-08
4.6156e-06
-7.21633e-08
4.63066e-06
-6.47668e-08
4.64406e-06
-5.65436e-08
4.65567e-06
-4.73536e-08
4.6653e-06
-3.70245e-08
4.67277e-06
-2.53434e-08
4.67791e-06
-1.20461e-08
4.6805e-06
3.19389e-09
4.68037e-06
2.07789e-08
4.67738e-06
4.12112e-08
4.67149e-06
6.51184e-08
4.66283e-06
9.32672e-08
4.65186e-06
1.26574e-07
4.63955e-06
1.66089e-07
4.62777e-06
2.12923e-07
4.61964e-06
2.68048e-07
4.62005e-06
3.3185e-07
4.63578e-06
4.03245e-07
4.67411e-06
4.78059e-07
5.46687e-07
4.73718e-06
3.26744e-06
-1.71371e-08
3.27357e-06
-3.26929e-08
3.28234e-06
-4.61676e-08
3.29343e-06
-5.80796e-08
3.30662e-06
-6.87498e-08
3.32169e-06
-7.83957e-08
3.33848e-06
-8.71717e-08
3.35685e-06
-9.5198e-08
3.37665e-06
-1.02568e-07
3.39777e-06
-1.09357e-07
3.42012e-06
-1.15625e-07
3.44359e-06
-1.21422e-07
3.46811e-06
-1.2679e-07
3.4936e-06
-1.31764e-07
3.51998e-06
-1.36376e-07
3.54719e-06
-1.40649e-07
3.57516e-06
-1.44606e-07
3.60384e-06
-1.48266e-07
3.63317e-06
-1.51646e-07
3.66311e-06
-1.54759e-07
3.69359e-06
-1.57619e-07
3.72457e-06
-1.60235e-07
3.75601e-06
-1.62619e-07
3.78786e-06
-1.64777e-07
3.82008e-06
-1.66718e-07
3.85262e-06
-1.68447e-07
3.88545e-06
-1.69971e-07
3.91853e-06
-1.71295e-07
3.95182e-06
-1.72422e-07
3.98528e-06
-1.73357e-07
4.01887e-06
-1.74103e-07
4.05256e-06
-1.74662e-07
4.08631e-06
-1.75038e-07
4.12009e-06
-1.75231e-07
4.15385e-06
-1.75243e-07
4.18757e-06
-1.75075e-07
4.22121e-06
-1.74727e-07
4.25474e-06
-1.742e-07
4.28812e-06
-1.73492e-07
4.32131e-06
-1.72602e-07
4.35428e-06
-1.71528e-07
4.38699e-06
-1.70269e-07
4.41941e-06
-1.6882e-07
4.45151e-06
-1.67178e-07
4.48323e-06
-1.65337e-07
4.51455e-06
-1.63292e-07
4.54543e-06
-1.61036e-07
4.57582e-06
-1.58559e-07
4.60569e-06
-1.55852e-07
4.63498e-06
-1.52903e-07
4.66365e-06
-1.49698e-07
4.69166e-06
-1.46221e-07
4.71895e-06
-1.42452e-07
4.74548e-06
-1.3837e-07
4.77117e-06
-1.33948e-07
4.79597e-06
-1.29155e-07
4.81982e-06
-1.23956e-07
4.84265e-06
-1.18309e-07
4.86438e-06
-1.12162e-07
4.88492e-06
-1.05458e-07
4.9042e-06
-9.81253e-08
4.92212e-06
-9.00814e-08
4.93858e-06
-8.12264e-08
4.95348e-06
-7.14411e-08
4.96671e-06
-6.05826e-08
4.97816e-06
-4.84791e-08
4.98774e-06
-3.49242e-08
4.99537e-06
-1.96699e-08
5.00098e-06
-2.42154e-09
5.00459e-06
1.71673e-08
5.00631e-06
3.94926e-08
5.00641e-06
6.50246e-08
5.00539e-06
9.42868e-08
5.00413e-06
1.27833e-07
5.00402e-06
1.66195e-07
5.00716e-06
2.09779e-07
5.01653e-06
2.58685e-07
5.03598e-06
3.12394e-07
5.06993e-06
3.69295e-07
5.12196e-06
4.26025e-07
4.76907e-07
5.19174e-06
3.49616e-06
-2.03092e-08
3.50256e-06
-3.90871e-08
3.51173e-06
-5.53406e-08
3.52339e-06
-6.97351e-08
3.53727e-06
-8.26353e-08
3.55317e-06
-9.42962e-08
3.57091e-06
-1.04904e-07
3.59031e-06
-1.14603e-07
3.61126e-06
-1.23507e-07
3.63361e-06
-1.31707e-07
3.65726e-06
-1.39275e-07
3.68211e-06
-1.46273e-07
3.70808e-06
-1.52751e-07
3.73507e-06
-1.58752e-07
3.76301e-06
-1.64313e-07
3.79183e-06
-1.69464e-07
3.82146e-06
-1.74233e-07
3.85184e-06
-1.78642e-07
3.88291e-06
-1.82711e-07
3.91461e-06
-1.86457e-07
3.94689e-06
-1.89896e-07
3.9797e-06
-1.93041e-07
4.01299e-06
-1.95904e-07
4.04671e-06
-1.98493e-07
4.08081e-06
-2.0082e-07
4.11526e-06
-2.0289e-07
4.15e-06
-2.04712e-07
4.185e-06
-2.06291e-07
4.22022e-06
-2.07633e-07
4.25561e-06
-2.08742e-07
4.29113e-06
-2.09623e-07
4.32675e-06
-2.10278e-07
4.36242e-06
-2.1071e-07
4.39812e-06
-2.10922e-07
4.43379e-06
-2.10916e-07
4.46941e-06
-2.10692e-07
4.50494e-06
-2.10251e-07
4.54034e-06
-2.09593e-07
4.57557e-06
-2.08718e-07
4.61059e-06
-2.07624e-07
4.64538e-06
-2.0631e-07
4.67988e-06
-2.04771e-07
4.71407e-06
-2.03006e-07
4.74791e-06
-2.01009e-07
4.78135e-06
-1.98775e-07
4.81435e-06
-1.96296e-07
4.84689e-06
-1.93566e-07
4.8789e-06
-1.90574e-07
4.91036e-06
-1.87309e-07
4.94122e-06
-1.83758e-07
4.97143e-06
-1.79905e-07
5.00094e-06
-1.75732e-07
5.02971e-06
-1.71219e-07
5.05768e-06
-1.66341e-07
5.0848e-06
-1.61068e-07
5.11102e-06
-1.5537e-07
5.13627e-06
-1.49205e-07
5.16049e-06
-1.42531e-07
5.18362e-06
-1.35294e-07
5.2056e-06
-1.27433e-07
5.22635e-06
-1.18876e-07
5.24581e-06
-1.0954e-07
5.26391e-06
-9.93264e-08
5.28059e-06
-8.81208e-08
5.2958e-06
-7.57892e-08
5.30949e-06
-6.21753e-08
5.32167e-06
-4.70981e-08
5.33235e-06
-3.03491e-08
5.34162e-06
-1.16916e-08
5.34964e-06
9.13816e-09
5.35673e-06
3.24091e-08
5.36334e-06
5.84078e-08
5.37021e-06
8.74177e-08
5.37837e-06
1.19677e-07
5.38924e-06
1.55322e-07
5.40472e-06
1.94304e-07
5.42713e-06
2.36269e-07
5.45914e-06
2.80389e-07
5.50326e-06
3.25171e-07
5.56101e-06
3.68272e-07
4.06503e-07
5.63142e-06
3.7409e-06
-2.35746e-08
3.74755e-06
-4.57332e-08
3.75713e-06
-6.49222e-08
3.76934e-06
-8.19482e-08
3.78393e-06
-9.72195e-08
3.80066e-06
-1.11025e-07
3.81934e-06
-1.23583e-07
3.8398e-06
-1.35064e-07
3.8619e-06
-1.45601e-07
3.8855e-06
-1.55301e-07
3.91048e-06
-1.64253e-07
3.93673e-06
-1.72526e-07
3.96417e-06
-1.80183e-07
3.99269e-06
-1.87274e-07
4.02222e-06
-1.93841e-07
4.05268e-06
-1.99923e-07
4.08401e-06
-2.0555e-07
4.11612e-06
-2.1075e-07
4.14896e-06
-2.15547e-07
4.18246e-06
-2.1996e-07
4.21658e-06
-2.24009e-07
4.25125e-06
-2.27709e-07
4.28642e-06
-2.31073e-07
4.32205e-06
-2.34114e-07
4.35807e-06
-2.36842e-07
4.39446e-06
-2.39267e-07
4.43115e-06
-2.41397e-07
4.4681e-06
-2.4324e-07
4.50527e-06
-2.44801e-07
4.54262e-06
-2.46086e-07
4.5801e-06
-2.471e-07
4.61767e-06
-2.47847e-07
4.6553e-06
-2.48331e-07
4.69293e-06
-2.48554e-07
4.73054e-06
-2.48518e-07
4.76807e-06
-2.48226e-07
4.8055e-06
-2.47677e-07
4.84279e-06
-2.46873e-07
4.87988e-06
-2.45812e-07
4.91676e-06
-2.44493e-07
4.95336e-06
-2.42915e-07
4.98967e-06
-2.41074e-07
5.02563e-06
-2.38967e-07
5.06122e-06
-2.36588e-07
5.09638e-06
-2.33933e-07
5.13108e-06
-2.30993e-07
5.16527e-06
-2.2776e-07
5.19892e-06
-2.24224e-07
5.23199e-06
-2.20372e-07
5.26442e-06
-2.16191e-07
5.29618e-06
-2.11664e-07
5.32723e-06
-2.06772e-07
5.3575e-06
-2.01492e-07
5.38696e-06
-1.95801e-07
5.41556e-06
-1.89667e-07
5.44325e-06
-1.83057e-07
5.46998e-06
-1.75933e-07
5.4957e-06
-1.68248e-07
5.52036e-06
-1.59952e-07
5.54391e-06
-1.50985e-07
5.56631e-06
-1.41278e-07
5.58753e-06
-1.30754e-07
5.60753e-06
-1.19323e-07
5.62629e-06
-1.06885e-07
5.64383e-06
-9.33231e-08
5.66016e-06
-7.85109e-08
5.67537e-06
-6.23061e-08
5.68958e-06
-4.45544e-08
5.70298e-06
-2.50914e-08
5.71586e-06
-3.74645e-09
5.72863e-06
1.96365e-08
5.74187e-06
4.51696e-08
5.75635e-06
7.29397e-08
5.77307e-06
1.02958e-07
5.79327e-06
1.35116e-07
5.81844e-06
1.69133e-07
5.85021e-06
2.04496e-07
5.89021e-06
2.40391e-07
5.93973e-06
2.75655e-07
5.99923e-06
3.0877e-07
3.37987e-07
6.06774e-06
4.00278e-06
-2.69381e-08
4.00968e-06
-5.26285e-08
4.01966e-06
-7.49092e-08
4.03243e-06
-9.47147e-08
4.04771e-06
-1.12499e-07
4.06527e-06
-1.28582e-07
4.0849e-06
-1.43211e-07
4.10642e-06
-1.56585e-07
4.12968e-06
-1.68857e-07
4.15453e-06
-1.80152e-07
4.18086e-06
-1.90571e-07
4.20853e-06
-2.00199e-07
4.23746e-06
-2.09105e-07
4.26754e-06
-2.1735e-07
4.29868e-06
-2.24983e-07
4.33081e-06
-2.32048e-07
4.36384e-06
-2.38581e-07
4.39771e-06
-2.44616e-07
4.43235e-06
-2.50178e-07
4.46769e-06
-2.55294e-07
4.50366e-06
-2.59983e-07
4.54022e-06
-2.64263e-07
4.57731e-06
-2.68152e-07
4.61486e-06
-2.71664e-07
4.65283e-06
-2.7481e-07
4.69117e-06
-2.77602e-07
4.72983e-06
-2.80049e-07
4.76875e-06
-2.82161e-07
4.8079e-06
-2.83944e-07
4.84722e-06
-2.85406e-07
4.88668e-06
-2.86551e-07
4.92622e-06
-2.87386e-07
4.96581e-06
-2.87913e-07
5.00539e-06
-2.88137e-07
5.04494e-06
-2.88061e-07
5.0844e-06
-2.87685e-07
5.12374e-06
-2.87012e-07
5.16292e-06
-2.86042e-07
5.20188e-06
-2.84775e-07
5.2406e-06
-2.8321e-07
5.27904e-06
-2.81345e-07
5.31714e-06
-2.79177e-07
5.35488e-06
-2.76702e-07
5.39221e-06
-2.73916e-07
5.4291e-06
-2.70812e-07
5.46549e-06
-2.67384e-07
5.50135e-06
-2.63621e-07
5.53664e-06
-2.59514e-07
5.57132e-06
-2.5505e-07
5.60535e-06
-2.50216e-07
5.63868e-06
-2.44994e-07
5.67128e-06
-2.39365e-07
5.7031e-06
-2.33307e-07
5.73409e-06
-2.26796e-07
5.76423e-06
-2.19802e-07
5.79346e-06
-2.12292e-07
5.82176e-06
-2.0423e-07
5.84909e-06
-1.95573e-07
5.87541e-06
-1.86273e-07
5.9007e-06
-1.76277e-07
5.92495e-06
-1.65524e-07
5.94814e-06
-1.53948e-07
5.97029e-06
-1.41474e-07
5.99143e-06
-1.28022e-07
6.01161e-06
-1.13504e-07
6.03093e-06
-9.78275e-08
6.04952e-06
-8.08965e-08
6.06758e-06
-6.26159e-08
6.08539e-06
-4.28955e-08
6.1033e-06
-2.16562e-08
6.12177e-06
1.1645e-09
6.14137e-06
2.55728e-08
6.16281e-06
5.14962e-08
6.18695e-06
7.88136e-08
6.21477e-06
1.07297e-07
6.24731e-06
1.3659e-07
6.28562e-06
1.66188e-07
6.3306e-06
1.95418e-07
6.38279e-06
2.23455e-07
6.44221e-06
2.49354e-07
2.72165e-07
6.50803e-06
4.283e-06
-3.0405e-08
4.29014e-06
-5.9772e-08
4.30053e-06
-8.52987e-08
4.31385e-06
-1.08031e-07
4.32982e-06
-1.28469e-07
4.3482e-06
-1.46962e-07
4.36878e-06
-1.63787e-07
4.39136e-06
-1.79167e-07
4.41578e-06
-1.93278e-07
4.4419e-06
-2.06263e-07
4.46957e-06
-2.18238e-07
4.49867e-06
-2.29299e-07
4.5291e-06
-2.39527e-07
4.56074e-06
-2.48992e-07
4.59351e-06
-2.5775e-07
4.62732e-06
-2.65852e-07
4.66208e-06
-2.73341e-07
4.69773e-06
-2.80254e-07
4.73417e-06
-2.86622e-07
4.77136e-06
-2.92473e-07
4.80921e-06
-2.97832e-07
4.84767e-06
-3.0272e-07
4.88668e-06
-3.07156e-07
4.92618e-06
-3.11156e-07
4.96611e-06
-3.14734e-07
5.00641e-06
-3.17904e-07
5.04705e-06
-3.20677e-07
5.08795e-06
-3.23063e-07
5.12908e-06
-3.25071e-07
5.17039e-06
-3.26707e-07
5.21182e-06
-3.27981e-07
5.25334e-06
-3.28896e-07
5.29489e-06
-3.29458e-07
5.33643e-06
-3.29672e-07
5.37791e-06
-3.2954e-07
5.4193e-06
-3.29066e-07
5.46054e-06
-3.28251e-07
5.5016e-06
-3.27096e-07
5.54243e-06
-3.25602e-07
5.58299e-06
-3.23768e-07
5.62324e-06
-3.21592e-07
5.66314e-06
-3.19072e-07
5.70264e-06
-3.16204e-07
5.74171e-06
-3.12984e-07
5.78031e-06
-3.09406e-07
5.81839e-06
-3.05463e-07
5.85592e-06
-3.01147e-07
5.89286e-06
-2.96446e-07
5.92916e-06
-2.9135e-07
5.96479e-06
-2.85845e-07
5.99971e-06
-2.79914e-07
6.03389e-06
-2.7354e-07
6.06729e-06
-2.66702e-07
6.09987e-06
-2.59377e-07
6.13161e-06
-2.51537e-07
6.16247e-06
-2.43155e-07
6.19244e-06
-2.34195e-07
6.22149e-06
-2.24623e-07
6.24961e-06
-2.14397e-07
6.27681e-06
-2.03473e-07
6.30309e-06
-1.91803e-07
6.32848e-06
-1.79335e-07
6.35302e-06
-1.66015e-07
6.37679e-06
-1.51787e-07
6.39988e-06
-1.36593e-07
6.42243e-06
-1.2038e-07
6.44463e-06
-1.03097e-07
6.46672e-06
-8.47038e-08
6.489e-06
-6.51758e-08
6.51185e-06
-4.45078e-08
6.53573e-06
-2.27209e-08
6.56117e-06
1.35433e-10
6.58874e-06
2.39298e-08
6.61909e-06
4.84566e-08
6.65294e-06
7.34506e-08
6.69096e-06
9.85704e-08
6.73376e-06
1.2339e-07
6.78177e-06
1.47406e-07
6.83516e-06
1.70062e-07
6.89373e-06
1.90787e-07
2.09066e-07
6.95683e-06
4.58283e-06
-3.39795e-08
4.59022e-06
-6.71625e-08
4.60101e-06
-9.60874e-08
4.61487e-06
-1.2189e-07
4.63153e-06
-1.45123e-07
4.65073e-06
-1.66159e-07
4.67225e-06
-1.85303e-07
4.69589e-06
-2.02804e-07
4.72147e-06
-2.1886e-07
4.74884e-06
-2.33632e-07
4.77786e-06
-2.4725e-07
4.80839e-06
-2.59826e-07
4.84031e-06
-2.7145e-07
4.87353e-06
-2.82201e-07
4.90793e-06
-2.92146e-07
4.94342e-06
-3.0134e-07
4.97992e-06
-3.09833e-07
5.01733e-06
-3.17668e-07
5.0556e-06
-3.2488e-07
5.09463e-06
-3.31501e-07
5.13436e-06
-3.3756e-07
5.17473e-06
-3.4308e-07
5.21566e-06
-3.48084e-07
5.2571e-06
-3.5259e-07
5.29898e-06
-3.56614e-07
5.34126e-06
-3.60173e-07
5.38386e-06
-3.63278e-07
5.42675e-06
-3.65941e-07
5.46985e-06
-3.68173e-07
5.51313e-06
-3.69983e-07
5.55653e-06
-3.71378e-07
5.60001e-06
-3.72366e-07
5.64351e-06
-3.72953e-07
5.68698e-06
-3.73143e-07
5.73039e-06
-3.72941e-07
5.77368e-06
-3.72351e-07
5.81681e-06
-3.71375e-07
5.85973e-06
-3.70015e-07
5.90241e-06
-3.68272e-07
5.94479e-06
-3.66145e-07
5.98683e-06
-3.63635e-07
6.02851e-06
-3.60739e-07
6.06976e-06
-3.57454e-07
6.11055e-06
-3.53776e-07
6.15085e-06
-3.49701e-07
6.19061e-06
-3.45222e-07
6.2298e-06
-3.40331e-07
6.26838e-06
-3.35019e-07
6.3063e-06
-3.29276e-07
6.34355e-06
-3.23089e-07
6.38008e-06
-3.16445e-07
6.41587e-06
-3.09327e-07
6.45089e-06
-3.01718e-07
6.48511e-06
-2.93597e-07
6.51852e-06
-2.84942e-07
6.5511e-06
-2.75729e-07
6.58283e-06
-2.65931e-07
6.61373e-06
-2.55519e-07
6.6438e-06
-2.44463e-07
6.67306e-06
-2.32731e-07
6.70154e-06
-2.20288e-07
6.72931e-06
-2.07102e-07
6.75644e-06
-1.9314e-07
6.78302e-06
-1.78371e-07
6.8092e-06
-1.62769e-07
6.83513e-06
-1.46314e-07
6.86104e-06
-1.28998e-07
6.88716e-06
-1.10826e-07
6.9138e-06
-9.18209e-08
6.94133e-06
-7.20294e-08
6.97013e-06
-5.15262e-08
7.00068e-06
-3.04155e-08
7.03344e-06
-8.82469e-09
7.06885e-06
1.30443e-08
7.10736e-06
3.49375e-08
7.14938e-06
5.65491e-08
7.19522e-06
7.75481e-08
7.24505e-06
9.75822e-08
7.29882e-06
1.16287e-07
7.35629e-06
1.33323e-07
1.48417e-07
7.41693e-06
4.90366e-06
-3.76649e-08
4.9113e-06
-7.47987e-08
4.92248e-06
-1.07271e-07
4.93688e-06
-1.36288e-07
4.95421e-06
-1.62453e-07
4.97422e-06
-1.86163e-07
4.99666e-06
-2.07749e-07
5.02135e-06
-2.27486e-07
5.04808e-06
-2.45592e-07
5.0767e-06
-2.62248e-07
5.10705e-06
-2.77599e-07
5.139e-06
-2.9177e-07
5.17242e-06
-3.04864e-07
5.20719e-06
-3.1697e-07
5.24321e-06
-3.28161e-07
5.28038e-06
-3.38502e-07
5.31859e-06
-3.48048e-07
5.35778e-06
-3.56847e-07
5.39785e-06
-3.64941e-07
5.43872e-06
-3.72366e-07
5.48031e-06
-3.79153e-07
5.52257e-06
-3.8533e-07
5.56541e-06
-3.90922e-07
5.60878e-06
-3.9595e-07
5.6526e-06
-4.00433e-07
5.69682e-06
-4.04388e-07
5.74138e-06
-4.07831e-07
5.78622e-06
-4.10773e-07
5.83128e-06
-4.13229e-07
5.87651e-06
-4.15207e-07
5.92185e-06
-4.16718e-07
5.96726e-06
-4.17769e-07
6.01268e-06
-4.18367e-07
6.05806e-06
-4.1852e-07
6.10336e-06
-4.18233e-07
6.14852e-06
-4.17509e-07
6.1935e-06
-4.16352e-07
6.23826e-06
-4.14766e-07
6.28274e-06
-4.12752e-07
6.32691e-06
-4.10311e-07
6.37073e-06
-4.07443e-07
6.41414e-06
-4.04147e-07
6.45711e-06
-4.00423e-07
6.4996e-06
-3.96266e-07
6.54158e-06
-3.91673e-07
6.583e-06
-3.86639e-07
6.62383e-06
-3.81159e-07
6.66404e-06
-3.75224e-07
6.70359e-06
-3.68827e-07
6.74246e-06
-3.61957e-07
6.78063e-06
-3.54603e-07
6.81805e-06
-3.46754e-07
6.85473e-06
-3.38394e-07
6.89065e-06
-3.29509e-07
6.92579e-06
-3.20082e-07
6.96016e-06
-3.10095e-07
6.99376e-06
-2.99531e-07
7.02661e-06
-2.88371e-07
7.05874e-06
-2.76594e-07
7.0902e-06
-2.64183e-07
7.12103e-06
-2.5112e-07
7.15132e-06
-2.3739e-07
7.18116e-06
-2.22982e-07
7.21068e-06
-2.07889e-07
7.24003e-06
-1.92113e-07
7.26938e-06
-1.75663e-07
7.29894e-06
-1.58562e-07
7.32896e-06
-1.40846e-07
7.35971e-06
-1.22573e-07
7.3915e-06
-1.03817e-07
7.42465e-06
-8.46776e-08
7.45952e-06
-6.52799e-08
7.49646e-06
-4.57701e-08
7.53582e-06
-2.63103e-08
7.57785e-06
-7.09304e-09
7.62275e-06
1.16498e-08
7.67062e-06
2.96709e-08
7.72148e-06
4.67225e-08
7.77521e-06
6.25621e-08
7.83154e-06
7.69912e-08
8.98714e-08
7.89008e-06
5.24695e-06
-4.14632e-08
5.25483e-06
-8.26778e-08
5.2664e-06
-1.18841e-07
5.28133e-06
-1.51212e-07
5.29932e-06
-1.80444e-07
5.32011e-06
-2.06958e-07
5.34348e-06
-2.31108e-07
5.36919e-06
-2.53193e-07
5.39705e-06
-2.73454e-07
5.4269e-06
-2.9209e-07
5.45856e-06
-3.09263e-07
5.49191e-06
-3.2511e-07
5.52679e-06
-3.39748e-07
5.5631e-06
-3.53273e-07
5.60072e-06
-3.65771e-07
5.63953e-06
-3.77313e-07
5.67945e-06
-3.8796e-07
5.72037e-06
-3.97767e-07
5.76222e-06
-4.0678e-07
5.8049e-06
-4.1504e-07
5.84833e-06
-4.22583e-07
5.89245e-06
-4.2944e-07
5.93717e-06
-4.35638e-07
5.98243e-06
-4.41203e-07
6.02816e-06
-4.46155e-07
6.07429e-06
-4.50514e-07
6.12076e-06
-4.54297e-07
6.16751e-06
-4.5752e-07
6.21449e-06
-4.60196e-07
6.26162e-06
-4.62337e-07
6.30886e-06
-4.63954e-07
6.35616e-06
-4.65058e-07
6.40345e-06
-4.65656e-07
6.45069e-06
-4.65756e-07
6.49783e-06
-4.65365e-07
6.54482e-06
-4.64489e-07
6.5916e-06
-4.63132e-07
6.63814e-06
-4.61299e-07
6.68438e-06
-4.58992e-07
6.73029e-06
-4.56215e-07
6.77582e-06
-4.52968e-07
6.82093e-06
-4.49253e-07
6.86558e-06
-4.45069e-07
6.90974e-06
-4.40415e-07
6.95336e-06
-4.35288e-07
6.99641e-06
-4.29688e-07
7.03886e-06
-4.23608e-07
7.08069e-06
-4.17046e-07
7.12186e-06
-4.09994e-07
7.16235e-06
-4.02448e-07
7.20215e-06
-3.944e-07
7.24124e-06
-3.85841e-07
7.27961e-06
-3.76763e-07
7.31726e-06
-3.67156e-07
7.3542e-06
-3.57013e-07
7.39042e-06
-3.46322e-07
7.42597e-06
-3.35075e-07
7.46087e-06
-3.23265e-07
7.49516e-06
-3.10883e-07
7.5289e-06
-2.97925e-07
7.56217e-06
-2.8439e-07
7.59506e-06
-2.70279e-07
7.62768e-06
-2.55601e-07
7.66016e-06
-2.40369e-07
7.69266e-06
-2.24606e-07
7.72534e-06
-2.08344e-07
7.7584e-06
-1.91627e-07
7.79207e-06
-1.7451e-07
7.82656e-06
-1.57067e-07
7.86213e-06
-1.39385e-07
7.89902e-06
-1.21568e-07
7.93748e-06
-1.03737e-07
7.97774e-06
-8.60286e-08
8.02002e-06
-6.859e-08
8.0645e-06
-5.1579e-08
8.1113e-06
-3.5145e-08
8.16041e-06
-1.94449e-08
8.21177e-06
-4.63666e-09
8.2652e-06
9.12949e-09
8.32046e-06
2.17328e-08
3.30999e-08
8.37723e-06
5.61427e-06
-4.53745e-08
5.62239e-06
-9.07954e-08
5.63434e-06
-1.30789e-07
5.64977e-06
-1.66649e-07
5.66841e-06
-1.99078e-07
5.68997e-06
-2.28521e-07
5.71422e-06
-2.55353e-07
5.74093e-06
-2.79897e-07
5.76989e-06
-3.02416e-07
5.80093e-06
-3.23126e-07
5.83388e-06
-3.42207e-07
5.86859e-06
-3.59811e-07
5.90491e-06
-3.76063e-07
5.94271e-06
-3.91075e-07
5.98189e-06
-4.04937e-07
6.02231e-06
-4.17732e-07
6.06388e-06
-4.29527e-07
6.1065e-06
-4.40382e-07
6.15008e-06
-4.5035e-07
6.19452e-06
-4.59476e-07
6.23974e-06
-4.678e-07
6.28567e-06
-4.75358e-07
6.33221e-06
-4.8218e-07
6.37931e-06
-4.88294e-07
6.42689e-06
-4.93724e-07
6.47487e-06
-4.98492e-07
6.5232e-06
-5.02618e-07
6.5718e-06
-5.06118e-07
6.62062e-06
-5.0901e-07
6.6696e-06
-5.11307e-07
6.71867e-06
-5.13021e-07
6.76778e-06
-5.14165e-07
6.81688e-06
-5.14748e-07
6.86591e-06
-5.1478e-07
6.91482e-06
-5.14268e-07
6.96356e-06
-5.13221e-07
7.01208e-06
-5.11645e-07
7.06033e-06
-5.09545e-07
7.10827e-06
-5.06926e-07
7.15585e-06
-5.03793e-07
7.20304e-06
-5.00149e-07
7.24978e-06
-4.95995e-07
7.29606e-06
-4.91336e-07
7.34182e-06
-4.8617e-07
7.38703e-06
-4.805e-07
7.43167e-06
-4.74325e-07
7.47571e-06
-4.67644e-07
7.51913e-06
-4.60457e-07
7.5619e-06
-4.5276e-07
7.60401e-06
-4.44553e-07
7.64544e-06
-4.35833e-07
7.6862e-06
-4.26597e-07
7.72629e-06
-4.16843e-07
7.7657e-06
-4.06569e-07
7.80447e-06
-3.95773e-07
7.8426e-06
-3.84454e-07
7.88014e-06
-3.72613e-07
7.91713e-06
-3.60253e-07
7.95363e-06
-3.4738e-07
7.98971e-06
-3.34e-07
8.02544e-06
-3.20127e-07
8.06094e-06
-3.05777e-07
8.09632e-06
-2.90974e-07
8.1317e-06
-2.75747e-07
8.16723e-06
-2.60133e-07
8.20306e-06
-2.44178e-07
8.23937e-06
-2.27938e-07
8.27634e-06
-2.11478e-07
8.31415e-06
-1.94875e-07
8.35298e-06
-1.78216e-07
8.39301e-06
-1.61599e-07
8.4344e-06
-1.45129e-07
8.4773e-06
-1.28921e-07
8.5218e-06
-1.13093e-07
8.56798e-06
-9.77633e-08
8.61589e-06
-8.305e-08
8.66551e-06
-6.90645e-08
8.71678e-06
-5.5907e-08
8.76956e-06
-4.36482e-08
8.82363e-06
-3.23455e-08
-2.20301e-08
8.87876e-06
6.0073e-06
-4.93963e-08
6.01565e-06
-9.91431e-08
6.02796e-06
-1.43098e-07
6.04389e-06
-1.82577e-07
6.06314e-06
-2.18328e-07
6.08544e-06
-2.5082e-07
6.11054e-06
-2.80449e-07
6.13821e-06
-3.07559e-07
6.16823e-06
-3.32435e-07
6.20042e-06
-3.55311e-07
6.2346e-06
-3.76384e-07
6.27061e-06
-3.95819e-07
6.30831e-06
-4.13757e-07
6.34756e-06
-4.30316e-07
6.38823e-06
-4.45601e-07
6.4302e-06
-4.59698e-07
6.47336e-06
-4.72684e-07
6.51761e-06
-4.84626e-07
6.56285e-06
-4.95582e-07
6.60898e-06
-5.05603e-07
6.65592e-06
-5.14732e-07
6.70358e-06
-5.23009e-07
6.75187e-06
-5.30469e-07
6.80073e-06
-5.37142e-07
6.85007e-06
-5.43057e-07
6.89982e-06
-5.48237e-07
6.94991e-06
-5.52705e-07
7.00028e-06
-5.56481e-07
7.05086e-06
-5.59583e-07
7.10159e-06
-5.62027e-07
7.1524e-06
-5.63827e-07
7.20324e-06
-5.64998e-07
7.25405e-06
-5.65551e-07
7.30478e-06
-5.65498e-07
7.35536e-06
-5.64849e-07
7.40576e-06
-5.63613e-07
7.45592e-06
-5.61798e-07
7.50579e-06
-5.59413e-07
7.55534e-06
-5.56464e-07
7.60451e-06
-5.52957e-07
7.65326e-06
-5.48899e-07
7.70157e-06
-5.44294e-07
7.74938e-06
-5.39148e-07
7.79668e-06
-5.33463e-07
7.84343e-06
-5.27244e-07
7.8896e-06