/*--------------------------------*- C++ -*----------------------------------*\
| =========                 |                                                 |
| \\      /  F ield         | OpenFOAM: The Open Source CFD Toolbox           |
|  \\    /   O peration     | Version:  2112                                  |
|   \\  /    A nd           | Website:  www.openfoam.com                      |
|    \\/     M anipulation  |                                                 |
\*---------------------------------------------------------------------------*/
FoamFile
{
    version     2.0;
    format      ascii;
    arch        "LSB;label=32;scalar=64";
    class       volScalarField;
    location    "8";
    object      T;
}
// * * * * * * * * * * * * * * * * * * * * * * * * * * * * * * * * * * * * * //

dimensions      [0 0 0 1 0 0 0];

internalField   nonuniform List<scalar> 
12013
(
300.003
300.011
300.018
300.026
300.033
300.042
300.05
300.059
300.069
300.078
300.088
300.098
300.109
300.12
300.132
300.144
300.156
300.169
300.182
300.195
300.209
300.224
300.239
300.254
300.27
300.286
300.303
300.321
300.339
300.357
300.376
300.396
300.416
300.437
300.458
300.48
300.502
300.526
300.549
300.574
300.599
300.625
300.652
300.679
300.707
300.736
300.765
300.796
300.827
300.859
300.892
300.926
300.961
300.997
301.034
301.072
301.111
301.151
301.192
301.234
301.278
301.322
301.369
301.416
301.465
301.516
301.569
301.623
301.679
301.737
301.798
301.861
301.926
301.995
302.068
302.144
302.226
302.313
302.408
302.514
302.637
300.003
300.011
300.018
300.026
300.033
300.042
300.05
300.059
300.069
300.078
300.088
300.098
300.109
300.12
300.132
300.144
300.156
300.169
300.182
300.195
300.209
300.224
300.239
300.254
300.27
300.286
300.303
300.321
300.339
300.357
300.376
300.396
300.416
300.436
300.458
300.48
300.502
300.525
300.549
300.574
300.599
300.625
300.651
300.679
300.707
300.736
300.765
300.796
300.827
300.859
300.892
300.926
300.961
300.997
301.034
301.071
301.11
301.15
301.191
301.234
301.277
301.322
301.368
301.416
301.465
301.515
301.568
301.622
301.678
301.736
301.796
301.859
301.924
301.993
302.065
302.14
302.221
302.306
302.399
302.499
302.608
300.003
300.011
300.018
300.026
300.033
300.042
300.05
300.059
300.069
300.078
300.088
300.098
300.109
300.12
300.132
300.144
300.156
300.169
300.182
300.195
300.209
300.224
300.239
300.254
300.27
300.286
300.303
300.321
300.339
300.357
300.376
300.396
300.416
300.436
300.458
300.48
300.502
300.525
300.549
300.574
300.599
300.625
300.651
300.679
300.707
300.736
300.765
300.796
300.827
300.859
300.892
300.926
300.961
300.996
301.033
301.071
301.11
301.15
301.191
301.233
301.276
301.321
301.367
301.415
301.463
301.514
301.566
301.62
301.676
301.733
301.793
301.855
301.92
301.988
302.058
302.133
302.211
302.293
302.381
302.473
302.569
300.003
300.011
300.018
300.026
300.033
300.042
300.05
300.059
300.069
300.078
300.088
300.098
300.109
300.12
300.132
300.144
300.156
300.169
300.182
300.195
300.209
300.224
300.239
300.254
300.27
300.286
300.303
300.321
300.339
300.357
300.376
300.396
300.416
300.436
300.458
300.48
300.502
300.525
300.549
300.574
300.599
300.625
300.651
300.678
300.706
300.735
300.765
300.795
300.826
300.859
300.891
300.925
300.96
300.996
301.032
301.07
301.109
301.149
301.19
301.232
301.275
301.319
301.365
301.413
301.461
301.511
301.563
301.617
301.672
301.729
301.788
301.849
301.913
301.979
302.048
302.12
302.196
302.274
302.355
302.44
302.526
300.003
300.011
300.018
300.026
300.033
300.042
300.05
300.059
300.069
300.078
300.088
300.098
300.109
300.12
300.132
300.144
300.156
300.169
300.182
300.195
300.209
300.224
300.239
300.254
300.27
300.286
300.303
300.321
300.338
300.357
300.376
300.395
300.416
300.436
300.458
300.479
300.502
300.525
300.549
300.573
300.598
300.624
300.651
300.678
300.706
300.735
300.764
300.795
300.826
300.858
300.891
300.924
300.959
300.995
301.031
301.069
301.107
301.147
301.188
301.23
301.273
301.317
301.363
301.41
301.458
301.508
301.559
301.612
301.666
301.723
301.781
301.841
301.903
301.968
302.035
302.104
302.175
302.249
302.325
302.402
302.48
300.003
300.011
300.018
300.026
300.033
300.042
300.05
300.059
300.069
300.078
300.088
300.098
300.109
300.12
300.132
300.144
300.156
300.169
300.182
300.195
300.209
300.224
300.239
300.254
300.27
300.286
300.303
300.32
300.338
300.357
300.376
300.395
300.415
300.436
300.457
300.479
300.502
300.525
300.549
300.573
300.598
300.624
300.65
300.678
300.706
300.734
300.764
300.794
300.825
300.857
300.89
300.923
300.958
300.993
301.03
301.067
301.106
301.145
301.186
301.227
301.27
301.314
301.359
301.406
301.453
301.502
301.553
301.605
301.659
301.714
301.771
301.83
301.89
301.953
302.017
302.083
302.151
302.22
302.29
302.361
302.432
300.003
300.011
300.018
300.025
300.033
300.042
300.05
300.059
300.068
300.078
300.088
300.098
300.109
300.12
300.132
300.144
300.156
300.168
300.182
300.195
300.209
300.224
300.239
300.254
300.27
300.286
300.303
300.32
300.338
300.357
300.376
300.395
300.415
300.436
300.457
300.479
300.501
300.524
300.548
300.573
300.598
300.623
300.65
300.677
300.705
300.733
300.763
300.793
300.824
300.856
300.888
300.922
300.956
300.992
301.028
301.065
301.103
301.142
301.182
301.224
301.266
301.31
301.354
301.4
301.447
301.496
301.546
301.597
301.649
301.703
301.759
301.816
301.874
301.934
301.996
302.058
302.122
302.187
302.252
302.317
302.382
300.003
300.011
300.018
300.025
300.033
300.042
300.05
300.059
300.068
300.078
300.088
300.098
300.109
300.12
300.132
300.143
300.156
300.168
300.182
300.195
300.209
300.224
300.238
300.254
300.27
300.286
300.303
300.32
300.338
300.356
300.375
300.395
300.415
300.435
300.457
300.478
300.501
300.524
300.548
300.572
300.597
300.623
300.649
300.676
300.704
300.732
300.762
300.792
300.822
300.854
300.887
300.92
300.954
300.989
301.025
301.062
301.1
301.139
301.179
301.219
301.261
301.304
301.348
301.394
301.44
301.488
301.536
301.586
301.638
301.69
301.744
301.799
301.855
301.912
301.971
302.03
302.09
302.15
302.211
302.271
302.331
300.003
300.011
300.018
300.025
300.033
300.042
300.05
300.059
300.068
300.078
300.088
300.098
300.109
300.12
300.132
300.143
300.156
300.168
300.181
300.195
300.209
300.223
300.238
300.254
300.269
300.286
300.303
300.32
300.338
300.356
300.375
300.394
300.415
300.435
300.456
300.478
300.5
300.523
300.547
300.571
300.596
300.622
300.648
300.675
300.703
300.731
300.76
300.79
300.821
300.852
300.884
300.918
300.951
300.986
301.022
301.058
301.096
301.134
301.174
301.214
301.255
301.298
301.341
301.385
301.431
301.477
301.525
301.574
301.623
301.674
301.726
301.779
301.833
301.887
301.942
301.998
302.055
302.111
302.167
302.223
302.278
300.003
300.01
300.018
300.025
300.033
300.042
300.05
300.059
300.068
300.078
300.088
300.098
300.109
300.12
300.132
300.143
300.156
300.168
300.181
300.195
300.209
300.223
300.238
300.253
300.269
300.286
300.302
300.32
300.337
300.356
300.375
300.394
300.414
300.435
300.456
300.477
300.5
300.523
300.546
300.57
300.595
300.621
300.647
300.674
300.701
300.729
300.758
300.788
300.818
300.85
300.882
300.915
300.948
300.983
301.018
301.054
301.091
301.129
301.168
301.207
301.248
301.29
301.332
301.376
301.42
301.465
301.512
301.559
301.607
301.656
301.706
301.756
301.807
301.859
301.911
301.964
302.016
302.069
302.121
302.173
302.224
300.003
300.01
300.018
300.025
300.033
300.042
300.05
300.059
300.068
300.078
300.088
300.098
300.109
300.12
300.131
300.143
300.156
300.168
300.181
300.195
300.209
300.223
300.238
300.253
300.269
300.285
300.302
300.319
300.337
300.355
300.374
300.394
300.414
300.434
300.455
300.477
300.499
300.522
300.545
300.569
300.594
300.619
300.645
300.672
300.699
300.727
300.756
300.786
300.816
300.847
300.878
300.911
300.944
300.978
301.013
301.049
301.085
301.122
301.161
301.2
301.239
301.28
301.322
301.364
301.407
301.451
301.496
301.542
301.588
301.635
301.682
301.731
301.779
301.828
301.877
301.927
301.976
302.025
302.074
302.122
302.17
300.003
300.01
300.018
300.025
300.033
300.042
300.05
300.059
300.068
300.078
300.088
300.098
300.109
300.12
300.131
300.143
300.155
300.168
300.181
300.195
300.209
300.223
300.238
300.253
300.269
300.285
300.302
300.319
300.337
300.355
300.374
300.393
300.413
300.433
300.454
300.476
300.498
300.521
300.544
300.568
300.592
300.618
300.643
300.67
300.697
300.725
300.753
300.783
300.813
300.843
300.874
300.907
300.939
300.973
301.007
301.042
301.078
301.115
301.152
301.19
301.229
301.269
301.309
301.35
301.392
301.435
301.478
301.522
301.566
301.611
301.657
301.702
301.748
301.795
301.841
301.887
301.933
301.979
302.025
302.069
302.114
300.003
300.01
300.018
300.025
300.033
300.042
300.05
300.059
300.068
300.078
300.088
300.098
300.109
300.12
300.131
300.143
300.155
300.168
300.181
300.194
300.208
300.223
300.237
300.253
300.268
300.285
300.301
300.318
300.336
300.354
300.373
300.392
300.412
300.432
300.453
300.475
300.497
300.519
300.542
300.566
300.591
300.616
300.641
300.667
300.694
300.722
300.75
300.779
300.809
300.839
300.87
300.901
300.934
300.967
301
301.035
301.07
301.106
301.142
301.18
301.217
301.256
301.295
301.335
301.375
301.416
301.458
301.5
301.542
301.585
301.628
301.672
301.715
301.759
301.802
301.845
301.889
301.931
301.974
302.016
302.057
300.003
300.01
300.018
300.025
300.033
300.042
300.05
300.059
300.068
300.078
300.088
300.098
300.109
300.12
300.131
300.143
300.155
300.168
300.181
300.194
300.208
300.222
300.237
300.252
300.268
300.284
300.301
300.318
300.335
300.354
300.372
300.391
300.411
300.431
300.452
300.473
300.495
300.518
300.541
300.564
300.588
300.613
300.639
300.665
300.691
300.718
300.746
300.775
300.804
300.834
300.864
300.895
300.927
300.96
300.993
301.026
301.061
301.096
301.131
301.167
301.204
301.241
301.279
301.318
301.357
301.396
301.436
301.476
301.516
301.557
301.598
301.639
301.68
301.72
301.761
301.802
301.842
301.882
301.922
301.961
301.999
300.003
300.01
300.018
300.025
300.033
300.042
300.05
300.059
300.068
300.078
300.088
300.098
300.109
300.12
300.131
300.143
300.155
300.167
300.18
300.194
300.208
300.222
300.237
300.252
300.267
300.284
300.3
300.317
300.335
300.353
300.371
300.39
300.41
300.43
300.451
300.472
300.493
300.516
300.539
300.562
300.586
300.61
300.636
300.661
300.688
300.714
300.742
300.77
300.799
300.828
300.858
300.888
300.92
300.951
300.984
301.016
301.05
301.084
301.118
301.153
301.189
301.225
301.261
301.298
301.336
301.373
301.411
301.449
301.488
301.526
301.565
301.603
301.642
301.68
301.719
301.757
301.795
301.832
301.869
301.905
301.941
300.003
300.01
300.018
300.025
300.033
300.041
300.05
300.059
300.068
300.078
300.088
300.098
300.108
300.119
300.131
300.142
300.155
300.167
300.18
300.194
300.207
300.222
300.236
300.251
300.267
300.283
300.299
300.316
300.334
300.352
300.37
300.389
300.409
300.428
300.449
300.47
300.491
300.513
300.536
300.559
300.583
300.607
300.632
300.657
300.683
300.71
300.737
300.764
300.793
300.821
300.851
300.88
300.911
300.942
300.973
301.005
301.038
301.071
301.104
301.138
301.172
301.207
301.242
301.277
301.313
301.349
301.385
301.421
301.457
301.494
301.53
301.566
301.603
301.639
301.675
301.71
301.746
301.78
301.815
301.849
301.882
300.003
300.01
300.018
300.025
300.033
300.041
300.05
300.059
300.068
300.077
300.087
300.098
300.108
300.119
300.13
300.142
300.154
300.167
300.18
300.193
300.207
300.221
300.236
300.251
300.266
300.282
300.299
300.315
300.333
300.351
300.369
300.388
300.407
300.427
300.447
300.468
300.489
300.511
300.533
300.556
300.579
300.603
300.628
300.653
300.678
300.704
300.731
300.758
300.786
300.814
300.842
300.871
300.901
300.931
300.962
300.993
301.024
301.056
301.088
301.121
301.153
301.187
301.22
301.254
301.288
301.322
301.356
301.39
301.425
301.459
301.494
301.528
301.562
301.596
301.629
301.663
301.695
301.728
301.76
301.792
301.823
300.003
300.01
300.018
300.025
300.033
300.041
300.05
300.059
300.068
300.077
300.087
300.097
300.108
300.119
300.13
300.142
300.154
300.166
300.179
300.193
300.206
300.22
300.235
300.25
300.265
300.281
300.297
300.314
300.331
300.349
300.367
300.386
300.405
300.425
300.445
300.465
300.486
300.508
300.53
300.552
300.575
300.599
300.623
300.648
300.673
300.698
300.724
300.751
300.778
300.805
300.833
300.861
300.89
300.919
300.949
300.978
301.009
301.039
301.07
301.102
301.133
301.165
301.197
301.229
301.261
301.294
301.326
301.358
301.391
301.423
301.455
301.488
301.519
301.551
301.583
301.614
301.645
301.675
301.705
301.735
301.764
300.003
300.01
300.018
300.025
300.033
300.041
300.05
300.059
300.068
300.077
300.087
300.097
300.108
300.119
300.13
300.142
300.154
300.166
300.179
300.192
300.206
300.22
300.234
300.249
300.264
300.28
300.296
300.313
300.33
300.348
300.366
300.384
300.403
300.422
300.442
300.462
300.483
300.504
300.526
300.548
300.571
300.594
300.618
300.642
300.666
300.691
300.716
300.742
300.769
300.795
300.822
300.85
300.878
300.906
300.934
300.963
300.992
301.022
301.051
301.081
301.111
301.142
301.172
301.202
301.233
301.264
301.294
301.325
301.355
301.386
301.416
301.446
301.476
301.506
301.535
301.564
301.593
301.622
301.65
301.677
301.705
300.003
300.01
300.018
300.025
300.033
300.041
300.05
300.058
300.068
300.077
300.087
300.097
300.107
300.118
300.13
300.141
300.153
300.165
300.178
300.191
300.205
300.219
300.233
300.248
300.263
300.279
300.295
300.311
300.328
300.346
300.363
300.382
300.4
300.42
300.439
300.459
300.48
300.5
300.522
300.544
300.566
300.588
300.612
300.635
300.659
300.683
300.708
300.733
300.759
300.784
300.811
300.837
300.864
300.891
300.919
300.946
300.974
301.002
301.031
301.059
301.088
301.117
301.146
301.174
301.203
301.232
301.261
301.29
301.319
301.347
301.376
301.404
301.432
301.46
301.487
301.514
301.541
301.568
301.594
301.62
301.645
300.003
300.01
300.018
300.025
300.033
300.041
300.049
300.058
300.067
300.077
300.087
300.097
300.107
300.118
300.129
300.141
300.153
300.165
300.178
300.191
300.204
300.218
300.232
300.247
300.262
300.277
300.293
300.31
300.326
300.344
300.361
300.379
300.398
300.416
300.436
300.455
300.475
300.496
300.517
300.538
300.56
300.582
300.605
300.628
300.651
300.675
300.699
300.723
300.748
300.773
300.798
300.824
300.849
300.875
300.902
300.928
300.955
300.982
301.009
301.036
301.063
301.09
301.118
301.145
301.172
301.2
301.227
301.254
301.281
301.308
301.334
301.361
301.387
301.413
301.439
301.464
301.489
301.514
301.538
301.563
301.586
300.003
300.01
300.018
300.025
300.033
300.041
300.049
300.058
300.067
300.077
300.086
300.096
300.107
300.117
300.129
300.14
300.152
300.164
300.177
300.19
300.203
300.217
300.231
300.246
300.26
300.276
300.292
300.308
300.324
300.341
300.358
300.376
300.394
300.413
300.432
300.451
300.471
300.491
300.512
300.532
300.554
300.575
300.597
300.619
300.642
300.665
300.688
300.712
300.736
300.76
300.784
300.809
300.834
300.859
300.884
300.909
300.935
300.96
300.986
301.012
301.037
301.063
301.089
301.115
301.14
301.166
301.192
301.217
301.242
301.267
301.292
301.317
301.342
301.366
301.39
301.414
301.437
301.46
301.483
301.506
301.528
300.003
300.01
300.017
300.025
300.033
300.041
300.049
300.058
300.067
300.076
300.086
300.096
300.106
300.117
300.128
300.139
300.151
300.163
300.176
300.189
300.202
300.216
300.23
300.244
300.259
300.274
300.29
300.305
300.322
300.338
300.356
300.373
300.391
300.409
300.428
300.447
300.466
300.486
300.506
300.526
300.547
300.568
300.589
300.611
300.632
300.655
300.677
300.7
300.723
300.746
300.769
300.793
300.817
300.841
300.865
300.889
300.913
300.937
300.962
300.986
301.01
301.035
301.059
301.083
301.108
301.132
301.156
301.18
301.203
301.227
301.25
301.273
301.296
301.319
301.341
301.364
301.385
301.407
301.428
301.449
301.47
300.003
300.01
300.017
300.025
300.033
300.041
300.049
300.058
300.067
300.076
300.086
300.095
300.106
300.116
300.127
300.139
300.15
300.162
300.175
300.188
300.201
300.214
300.228
300.242
300.257
300.272
300.287
300.303
300.319
300.335
300.352
300.369
300.387
300.405
300.423
300.441
300.46
300.479
300.499
300.519
300.539
300.559
300.58
300.601
300.622
300.643
300.665
300.687
300.709
300.731
300.754
300.776
300.799
300.822
300.845
300.868
300.891
300.914
300.937
300.96
300.983
301.006
301.029
301.052
301.074
301.097
301.12
301.142
301.164
301.186
301.208
301.23
301.251
301.272
301.293
301.314
301.334
301.355
301.374
301.394
301.413
300.003
300.01
300.017
300.025
300.032
300.04
300.049
300.057
300.066
300.076
300.085
300.095
300.105
300.116
300.127
300.138
300.15
300.161
300.174
300.186
300.199
300.213
300.226
300.24
300.255
300.27
300.285
300.3
300.316
300.332
300.349
300.365
300.382
300.4
300.418
300.436
300.454
300.473
300.492
300.511
300.531
300.55
300.57
300.591
300.611
300.632
300.652
300.673
300.695
300.716
300.737
300.759
300.78
300.802
300.824
300.846
300.868
300.889
300.911
300.933
300.955
300.976
300.998
301.019
301.041
301.062
301.083
301.104
301.125
301.146
301.166
301.186
301.206
301.226
301.246
301.265
301.284
301.303
301.322
301.34
301.358
300.003
300.01
300.017
300.025
300.032
300.04
300.048
300.057
300.066
300.075
300.085
300.094
300.105
300.115
300.126
300.137
300.148
300.16
300.172
300.185
300.198
300.211
300.224
300.238
300.253
300.267
300.282
300.297
300.313
300.328
300.345
300.361
300.378
300.395
300.412
300.43
300.448
300.466
300.484
300.503
300.522
300.541
300.56
300.58
300.599
300.619
300.639
300.659
300.679
300.7
300.72
300.741
300.761
300.782
300.803
300.823
300.844
300.865
300.885
300.906
300.926
300.947
300.967
300.987
301.007
301.027
301.047
301.067
301.086
301.105
301.125
301.144
301.162
301.181
301.199
301.217
301.235
301.253
301.27
301.287
301.304
300.003
300.01
300.017
300.024
300.032
300.04
300.048
300.057
300.065
300.075
300.084
300.094
300.104
300.114
300.125
300.136
300.147
300.159
300.171
300.183
300.196
300.209
300.222
300.236
300.25
300.264
300.279
300.294
300.309
300.324
300.34
300.356
300.373
300.389
300.406
300.423
300.441
300.458
300.476
300.494
300.512
300.531
300.549
300.568
300.587
300.606
300.625
300.644
300.664
300.683
300.703
300.722
300.742
300.761
300.781
300.801
300.82
300.84
300.859
300.878
300.898
300.917
300.936
300.955
300.974
300.993
301.011
301.03
301.048
301.066
301.084
301.102
301.119
301.137
301.154
301.171
301.187
301.204
301.22
301.236
301.252
300.003
300.01
300.017
300.024
300.032
300.04
300.048
300.056
300.065
300.074
300.083
300.093
300.103
300.113
300.124
300.135
300.146
300.158
300.17
300.182
300.194
300.207
300.22
300.234
300.247
300.261
300.276
300.29
300.305
300.32
300.336
300.351
300.367
300.383
300.4
300.416
300.433
300.45
300.468
300.485
300.503
300.52
300.538
300.556
300.574
300.593
300.611
300.629
300.648
300.666
300.685
300.703
300.722
300.741
300.759
300.778
300.796
300.815
300.833
300.851
300.87
300.888
300.906
300.924
300.941
300.959
300.976
300.994
301.011
301.028
301.045
301.061
301.078
301.094
301.11
301.126
301.141
301.157
301.172
301.187
301.202
300.003
300.01
300.017
300.024
300.032
300.039
300.047
300.056
300.065
300.073
300.083
300.092
300.102
300.112
300.123
300.134
300.145
300.156
300.168
300.18
300.192
300.205
300.218
300.231
300.244
300.258
300.272
300.286
300.301
300.316
300.331
300.346
300.362
300.377
300.393
300.409
300.426
300.442
300.459
300.476
300.493
300.51
300.527
300.544
300.562
300.579
300.597
300.614
300.632
300.649
300.667
300.685
300.702
300.72
300.738
300.755
300.773
300.79
300.808
300.825
300.842
300.859
300.876
300.893
300.91
300.926
300.943
300.959
300.975
300.991
301.007
301.022
301.038
301.053
301.068
301.083
301.097
301.112
301.126
301.14
301.154
300.003
300.01
300.017
300.024
300.031
300.039
300.047
300.055
300.064
300.073
300.082
300.092
300.101
300.111
300.122
300.132
300.143
300.155
300.166
300.178
300.19
300.202
300.215
300.228
300.241
300.255
300.268
300.282
300.297
300.311
300.326
300.341
300.356
300.371
300.386
300.402
300.418
300.434
300.45
300.466
300.482
300.499
300.515
300.532
300.549
300.565
300.582
300.599
300.616
300.633
300.649
300.666
300.683
300.7
300.717
300.733
300.75
300.766
300.783
300.799
300.815
300.831
300.847
300.863
300.879
300.895
300.91
300.925
300.941
300.956
300.97
300.985
301
301.014
301.028
301.042
301.056
301.069
301.083
301.096
301.109
300.003
300.01
300.017
300.024
300.031
300.039
300.047
300.055
300.063
300.072
300.081
300.091
300.1
300.11
300.121
300.131
300.142
300.153
300.164
300.176
300.188
300.2
300.212
300.225
300.238
300.251
300.265
300.278
300.292
300.306
300.321
300.335
300.35
300.365
300.38
300.395
300.41
300.425
300.441
300.457
300.472
300.488
300.504
300.52
300.536
300.552
300.568
300.584
300.6
300.616
300.632
300.648
300.664
300.68
300.696
300.712
300.728
300.743
300.759
300.775
300.79
300.805
300.82
300.835
300.85
300.865
300.88
300.894
300.908
300.922
300.936
300.95
300.964
300.977
300.991
301.004
301.017
301.03
301.042
301.055
301.067
300.003
300.01
300.016
300.024
300.031
300.038
300.046
300.054
300.063
300.072
300.08
300.09
300.099
300.109
300.119
300.13
300.14
300.151
300.162
300.174
300.186
300.198
300.21
300.222
300.235
300.248
300.261
300.274
300.288
300.302
300.315
300.33
300.344
300.358
300.373
300.387
300.402
300.417
300.432
300.447
300.462
300.478
300.493
300.508
300.524
300.539
300.554
300.57
300.585
300.601
300.616
300.631
300.646
300.662
300.677
300.692
300.707
300.722
300.737
300.751
300.766
300.78
300.795
300.809
300.823
300.837
300.851
300.865
300.878
300.892
300.905
300.918
300.931
300.944
300.956
300.969
300.981
300.993
301.005
301.017
301.029
300.003
300.01
300.016
300.023
300.031
300.038
300.046
300.054
300.062
300.071
300.08
300.089
300.098
300.108
300.118
300.128
300.139
300.149
300.16
300.172
300.183
300.195
300.207
300.219
300.232
300.244
300.257
300.27
300.283
300.297
300.31
300.324
300.338
300.352
300.366
300.38
300.395
300.409
300.424
300.438
300.453
300.468
300.482
300.497
300.512
300.527
300.541
300.556
300.571
300.586
300.6
300.615
300.63
300.644
300.659
300.673
300.687
300.702
300.716
300.73
300.744
300.758
300.771
300.785
300.798
300.812
300.825
300.838
300.851
300.863
300.876
300.888
300.901
300.913
300.925
300.937
300.948
300.96
300.971
300.982
300.993
300.003
300.01
300.016
300.023
300.03
300.038
300.045
300.053
300.062
300.07
300.079
300.088
300.097
300.107
300.117
300.127
300.137
300.148
300.159
300.17
300.181
300.193
300.204
300.216
300.228
300.241
300.253
300.266
300.279
300.292
300.305
300.319
300.332
300.346
300.36
300.374
300.387
300.401
300.416
300.43
300.444
300.458
300.472
300.487
300.501
300.515
300.529
300.544
300.558
300.572
300.586
300.6
300.614
300.628
300.642
300.656
300.67
300.683
300.697
300.71
300.724
300.737
300.75
300.763
300.776
300.788
300.801
300.814
300.826
300.838
300.85
300.862
300.874
300.885
300.897
300.908
300.919
300.93
300.941
300.952
300.962
300.003
300.009
300.016
300.023
300.03
300.037
300.045
300.053
300.061
300.069
300.078
300.087
300.096
300.106
300.115
300.125
300.136
300.146
300.157
300.168
300.179
300.19
300.202
300.214
300.225
300.238
300.25
300.262
300.275
300.288
300.301
300.314
300.327
300.34
300.354
300.367
300.381
300.395
300.408
300.422
300.436
300.45
300.463
300.477
300.491
300.505
300.519
300.532
300.546
300.56
300.574
300.587
300.601
300.614
300.628
300.641
300.654
300.667
300.68
300.693
300.706
300.719
300.731
300.744
300.756
300.768
300.78
300.792
300.804
300.816
300.827
300.839
300.85
300.861
300.872
300.883
300.894
300.904
300.915
300.925
300.935
300.003
300.009
300.016
300.023
300.03
300.037
300.044
300.052
300.06
300.069
300.077
300.086
300.095
300.105
300.114
300.124
300.134
300.144
300.155
300.166
300.177
300.188
300.199
300.211
300.223
300.235
300.247
300.259
300.272
300.284
300.297
300.31
300.323
300.336
300.349
300.362
300.375
300.388
300.402
300.415
300.429
300.442
300.455
300.469
300.482
300.496
300.509
300.523
300.536
300.549
300.563
300.576
300.589
300.602
300.615
300.628
300.641
300.653
300.666
300.678
300.691
300.703
300.715
300.727
300.739
300.751
300.763
300.774
300.786
300.797
300.808
300.819
300.83
300.841
300.852
300.862
300.872
300.883
300.893
300.903
300.912
300.003
300.009
300.016
300.022
300.029
300.037
300.044
300.052
300.06
300.068
300.077
300.085
300.094
300.104
300.113
300.123
300.133
300.143
300.154
300.164
300.175
300.186
300.197
300.209
300.22
300.232
300.244
300.256
300.268
300.281
300.293
300.306
300.319
300.331
300.344
300.357
300.37
300.383
300.396
300.409
300.423
300.436
300.449
300.462
300.475
300.488
300.501
300.515
300.528
300.541
300.553
300.566
300.579
300.592
300.605
300.617
300.63
300.642
300.654
300.666
300.678
300.69
300.702
300.714
300.726
300.737
300.749
300.76
300.771
300.782
300.793
300.803
300.814
300.825
300.835
300.845
300.855
300.865
300.875
300.884
300.894
300.003
300.009
300.016
300.022
300.029
300.036
300.044
300.051
300.059
300.068
300.076
300.085
300.094
300.103
300.112
300.122
300.132
300.142
300.152
300.163
300.174
300.184
300.196
300.207
300.218
300.23
300.242
300.254
300.266
300.278
300.29
300.303
300.315
300.328
300.341
300.353
300.366
300.379
300.392
300.405
300.418
300.431
300.444
300.457
300.47
300.482
300.495
300.508
300.521
300.534
300.546
300.559
300.572
300.584
300.596
300.609
300.621
300.633
300.645
300.657
300.669
300.681
300.692
300.704
300.715
300.726
300.738
300.749
300.759
300.77
300.781
300.791
300.802
300.812
300.822
300.832
300.842
300.852
300.861
300.871
300.88
300.003
300.009
300.015
300.022
300.029
300.036
300.043
300.051
300.059
300.067
300.076
300.084
300.093
300.102
300.112
300.121
300.131
300.141
300.151
300.162
300.172
300.183
300.194
300.206
300.217
300.228
300.24
300.252
300.264
300.276
300.288
300.301
300.313
300.325
300.338
300.351
300.363
300.376
300.389
300.401
300.414
300.427
300.44
300.453
300.465
300.478
300.491
300.504
300.516
300.529
300.541
300.554
300.566
300.579
300.591
300.603
300.615
300.627
300.639
300.651
300.662
300.674
300.685
300.697
300.708
300.719
300.73
300.741
300.752
300.762
300.773
300.783
300.793
300.803
300.813
300.823
300.833
300.842
300.852
300.861
300.87
300.003
300.009
300.015
300.022
300.029
300.036
300.043
300.051
300.059
300.067
300.075
300.084
300.093
300.102
300.111
300.121
300.13
300.14
300.151
300.161
300.172
300.182
300.193
300.205
300.216
300.227
300.239
300.251
300.263
300.275
300.287
300.299
300.311
300.324
300.336
300.349
300.361
300.374
300.387
300.399
300.412
300.425
300.438
300.45
300.463
300.476
300.488
300.501
300.513
300.526
300.538
300.551
300.563
300.575
300.587
300.599
300.611
300.623
300.635
300.647
300.658
300.67
300.681
300.692
300.704
300.715
300.725
300.736
300.747
300.757
300.768
300.778
300.788
300.798
300.808
300.818
300.827
300.837
300.846
300.855
300.865
300.003
300.009
300.015
300.022
300.029
300.036
300.043
300.051
300.059
300.067
300.075
300.084
300.092
300.101
300.111
300.12
300.13
300.14
300.15
300.161
300.171
300.182
300.193
300.204
300.215
300.227
300.239
300.25
300.262
300.274
300.286
300.298
300.311
300.323
300.336
300.348
300.361
300.373
300.386
300.399
300.411
300.424
300.437
300.449
300.462
300.474
300.487
300.5
300.512
300.525
300.537
300.549
300.562
300.574
300.586
300.598
300.61
300.622
300.633
300.645
300.657
300.668
300.679
300.691
300.702
300.713
300.724
300.734
300.745
300.755
300.766
300.776
300.786
300.796
300.806
300.816
300.825
300.835
300.844
300.853
300.862
302.792
302.913
303.015
303.104
303.184
303.256
303.321
303.382
303.438
303.489
303.537
303.582
303.623
303.662
303.698
303.732
303.764
303.794
303.823
303.85
303.877
303.903
303.93
303.957
303.985
304.014
304.042
304.07
304.097
304.125
304.152
304.179
304.206
304.233
304.26
304.286
304.312
304.338
304.364
304.39
304.415
304.441
304.466
304.492
304.517
304.542
304.568
304.593
304.618
304.643
304.667
304.692
304.717
304.742
304.766
304.791
304.816
304.84
304.865
304.889
304.914
304.938
304.962
304.987
305.011
305.035
305.06
305.084
305.108
305.133
305.157
305.181
305.205
305.23
305.254
305.278
305.302
305.327
305.351
305.375
305.4
305.424
305.448
305.473
305.497
305.521
305.546
305.57
305.595
305.619
305.643
305.668
305.692
305.717
305.741
305.766
305.79
305.815
305.839
305.864
305.888
305.913
305.937
305.962
305.986
306.01
306.035
306.059
306.083
306.107
306.132
306.156
306.179
306.203
306.227
306.25
306.274
306.297
306.32
306.342
306.365
306.387
306.408
306.43
306.451
306.471
306.491
306.51
306.529
306.547
306.565
306.581
306.597
306.612
306.625
306.638
306.649
306.66
306.668
306.675
306.68
306.684
306.686
306.685
306.682
306.676
306.668
306.657
306.642
306.624
306.602
306.576
306.545
306.508
306.466
306.417
306.366
306.305
306.22
306.093
305.899
302.726
302.834
302.931
303.019
303.098
303.17
303.237
303.298
303.355
303.408
303.457
303.503
303.546
303.586
303.624
303.66
303.693
303.725
303.756
303.785
303.814
303.842
303.87
303.898
303.927
303.955
303.984
304.012
304.04
304.068
304.096
304.124
304.151
304.178
304.205
304.232
304.259
304.285
304.311
304.337
304.363
304.389
304.415
304.441
304.466
304.492
304.517
304.542
304.568
304.593
304.618
304.643
304.668
304.693
304.718
304.743
304.768
304.792
304.817
304.842
304.867
304.891
304.916
304.94
304.965
304.99
305.014
305.039
305.063
305.088
305.112
305.137
305.161
305.186
305.21
305.235
305.259
305.284
305.308
305.333
305.357
305.382
305.406
305.431
305.455
305.48
305.504
305.529
305.554
305.578
305.603
305.628
305.652
305.677
305.702
305.726
305.751
305.776
305.801
305.825
305.85
305.875
305.899
305.924
305.949
305.973
305.998
306.023
306.047
306.071
306.096
306.12
306.144
306.168
306.192
306.216
306.239
306.263
306.286
306.309
306.332
306.354
306.376
306.397
306.419
306.439
306.46
306.479
306.498
306.517
306.534
306.551
306.567
306.582
306.596
306.609
306.62
306.631
306.639
306.647
306.652
306.656
306.657
306.657
306.654
306.648
306.64
306.629
306.614
306.596
306.573
306.547
306.515
306.478
306.435
306.385
306.331
306.266
306.176
306.045
305.85
302.668
302.764
302.854
302.937
303.014
303.085
303.152
303.213
303.271
303.324
303.375
303.422
303.466
303.508
303.547
303.584
303.619
303.653
303.685
303.716
303.747
303.776
303.805
303.835
303.864
303.893
303.922
303.951
303.98
304.008
304.037
304.065
304.092
304.12
304.147
304.175
304.202
304.228
304.255
304.281
304.308
304.334
304.36
304.386