/*--------------------------------*- C++ -*----------------------------------*\
| =========                 |                                                 |
| \\      /  F ield         | OpenFOAM: The Open Source CFD Toolbox           |
|  \\    /   O peration     | Version:  2112                                  |
|   \\  /    A nd           | Website:  www.openfoam.com                      |
|    \\/     M anipulation  |                                                 |
\*---------------------------------------------------------------------------*/
FoamFile
{
    version     2.0;
    format      ascii;
    arch        "LSB;label=32;scalar=64";
    class       volVectorField;
    location    "8";
    object      U;
}
// * * * * * * * * * * * * * * * * * * * * * * * * * * * * * * * * * * * * * //

dimensions      [0 1 -1 0 0 0 0];

internalField   nonuniform List<vector> 
12013
(
(0.100038 -1.0521e-05 0)
(0.100192 -1.94775e-05 0)
(0.100443 -2.7803e-05 0)
(0.100767 -3.54977e-05 0)
(0.101158 -4.27417e-05 0)
(0.101611 -4.96353e-05 0)
(0.102119 -5.62437e-05 0)
(0.102677 -6.26177e-05 0)
(0.103282 -6.87962e-05 0)
(0.10393 -7.481e-05 0)
(0.104617 -8.06825e-05 0)
(0.105341 -8.64336e-05 0)
(0.106099 -9.20789e-05 0)
(0.106888 -9.76311e-05 0)
(0.107706 -0.000103101 0)
(0.108551 -0.000108496 0)
(0.109422 -0.000113823 0)
(0.110316 -0.000119087 0)
(0.111231 -0.000124291 0)
(0.112167 -0.000129439 0)
(0.113121 -0.000134532 0)
(0.114092 -0.000139571 0)
(0.115078 -0.000144554 0)
(0.116079 -0.000149481 0)
(0.117092 -0.000154351 0)
(0.118118 -0.00015916 0)
(0.119153 -0.000163907 0)
(0.120198 -0.000168586 0)
(0.121251 -0.000173195 0)
(0.12231 -0.000177726 0)
(0.123376 -0.000182176 0)
(0.124445 -0.000186537 0)
(0.125519 -0.000190802 0)
(0.126595 -0.000194963 0)
(0.127672 -0.000199012 0)
(0.128749 -0.000202939 0)
(0.129826 -0.000206733 0)
(0.1309 -0.000210382 0)
(0.131972 -0.000213873 0)
(0.133039 -0.000217192 0)
(0.134102 -0.000220323 0)
(0.135158 -0.000223248 0)
(0.136206 -0.000225947 0)
(0.137247 -0.000228399 0)
(0.138277 -0.000230578 0)
(0.139296 -0.000232457 0)
(0.140303 -0.000234004 0)
(0.141297 -0.000235185 0)
(0.142275 -0.000235958 0)
(0.143237 -0.000236279 0)
(0.144181 -0.000236093 0)
(0.145106 -0.000235341 0)
(0.146008 -0.000233952 0)
(0.146888 -0.000231845 0)
(0.147741 -0.000228924 0)
(0.148567 -0.000225075 0)
(0.149363 -0.000220166 0)
(0.150124 -0.000214036 0)
(0.150849 -0.000206494 0)
(0.151534 -0.000197307 0)
(0.152173 -0.000186189 0)
(0.152763 -0.000172789 0)
(0.153298 -0.000156668 0)
(0.15377 -0.000137272 0)
(0.154171 -0.000113893 0)
(0.154492 -8.56145e-05 0)
(0.15472 -5.12325e-05 0)
(0.15484 -9.13856e-06 0)
(0.154833 4.28702e-05 0)
(0.154674 0.000107923 0)
(0.154332 0.000190493 0)
(0.153763 0.000297161 0)
(0.152907 0.000437917 0)
(0.151681 0.000628431 0)
(0.149961 0.000894129 0)
(0.147565 0.00127774 0)
(0.144209 0.00185375 0)
(0.139417 0.00275998 0)
(0.1324 0.00429441 0)
(0.122062 0.00733409 0)
(0.110191 0.0160071 0)
(0.100035 -3.21241e-05 0)
(0.100189 -5.97172e-05 0)
(0.100438 -8.52867e-05 0)
(0.100761 -0.000108902 0)
(0.101152 -0.000131133 0)
(0.101604 -0.000152289 0)
(0.102111 -0.000172566 0)
(0.102668 -0.000192123 0)
(0.103272 -0.00021108 0)
(0.103919 -0.000229528 0)
(0.104605 -0.000247543 0)
(0.105328 -0.000265184 0)
(0.106084 -0.0002825 0)
(0.106872 -0.000299529 0)
(0.107689 -0.000316303 0)
(0.108533 -0.000332848 0)
(0.109403 -0.000349183 0)
(0.110295 -0.000365325 0)
(0.111209 -0.000381283 0)
(0.112144 -0.000397067 0)
(0.113096 -0.00041268 0)
(0.114066 -0.000428125 0)
(0.115051 -0.000443401 0)
(0.11605 -0.000458504 0)
(0.117062 -0.00047343 0)
(0.118085 -0.000488171 0)
(0.119119 -0.000502717 0)
(0.120162 -0.000517057 0)
(0.121213 -0.000531177 0)
(0.122271 -0.000545062 0)
(0.123335 -0.000558694 0)
(0.124403 -0.000572054 0)
(0.125474 -0.000585119 0)
(0.126548 -0.000597865 0)
(0.127623 -0.000610266 0)
(0.128698 -0.000622291 0)
(0.129773 -0.000633908 0)
(0.130845 -0.00064508 0)
(0.131914 -0.000655768 0)
(0.13298 -0.000665928 0)
(0.13404 -0.000675511 0)
(0.135093 -0.000684461 0)
(0.13614 -0.00069272 0)
(0.137177 -0.000700219 0)
(0.138205 -0.000706883 0)
(0.139222 -0.000712627 0)
(0.140227 -0.000717356 0)
(0.141218 -0.000720961 0)
(0.142194 -0.000723319 0)
(0.143153 -0.00072429 0)
(0.144095 -0.000723714 0)
(0.145016 -0.000721405 0)
(0.145917 -0.000717149 0)
(0.146794 -0.000710697 0)
(0.147645 -0.000701758 0)
(0.148469 -0.000689987 0)
(0.149262 -0.000674979 0)
(0.150022 -0.000656248 0)
(0.150746 -0.000633212 0)
(0.151429 -0.000605165 0)
(0.152068 -0.000571244 0)
(0.152659 -0.000530386 0)
(0.153194 -0.000481266 0)
(0.153669 -0.000422217 0)
(0.154074 -0.000351113 0)
(0.154401 -0.000265212 0)
(0.154638 -0.000160922 0)
(0.154772 -3.34712e-05 0)
(0.154784 0.00012361 0)
(0.154653 0.000319368 0)
(0.154351 0.000566628 0)
(0.153841 0.000883999 0)
(0.153075 0.0012992 0)
(0.151987 0.00185462 0)
(0.15049 0.00261689 0)
(0.148463 0.0036931 0)
(0.145745 0.00525827 0)
(0.142113 0.00760081 0)
(0.137295 0.0111999 0)
(0.131305 0.0167626 0)
(0.126434 0.0246698 0)
(0.100032 -5.46018e-05 0)
(0.100184 -0.000102432 0)
(0.100431 -0.000146471 0)
(0.100752 -0.000187131 0)
(0.101141 -0.000225401 0)
(0.10159 -0.000261812 0)
(0.102095 -0.000296706 0)
(0.102651 -0.000330357 0)
(0.103253 -0.000362972 0)
(0.103897 -0.000394711 0)
(0.104581 -0.000425701 0)
(0.105302 -0.000456046 0)
(0.106056 -0.000485829 0)
(0.106842 -0.000515117 0)
(0.107656 -0.000543966 0)
(0.108498 -0.000572418 0)
(0.109365 -0.000600507 0)
(0.110255 -0.000628262 0)
(0.111166 -0.000655699 0)
(0.112098 -0.000682835 0)
(0.113047 -0.000709675 0)
(0.114014 -0.000736224 0)
(0.114996 -0.00076248 0)
(0.115992 -0.000788438 0)
(0.117001 -0.000814088 0)
(0.118021 -0.000839418 0)
(0.119052 -0.000864411 0)
(0.120091 -0.000889047 0)
(0.121139 -0.000913303 0)
(0.122193 -0.000937152 0)
(0.123253 -0.000960564 0)
(0.124317 -0.000983506 0)
(0.125384 -0.00100594 0)
(0.126454 -0.00102782 0)
(0.127525 -0.0010491 0)
(0.128596 -0.00106974 0)
(0.129666 -0.00108967 0)
(0.130734 -0.00110884 0)
(0.131799 -0.00112717 0)
(0.132859 -0.00114459 0)
(0.133915 -0.00116102 0)
(0.134963 -0.00117635 0)
(0.136005 -0.0011905 0)
(0.137038 -0.00120334 0)
(0.13806 -0.00121474 0)
(0.139072 -0.00122456 0)
(0.140072 -0.00123264 0)
(0.141057 -0.00123878 0)
(0.142028 -0.00124279 0)
(0.142982 -0.00124442 0)
(0.143918 -0.0012434 0)
(0.144835 -0.00123941 0)
(0.14573 -0.00123209 0)
(0.146602 -0.00122101 0)
(0.147449 -0.00120569 0)
(0.148268 -0.00118554 0)
(0.149057 -0.00115987 0)
(0.149813 -0.00112788 0)
(0.150534 -0.00108858 0)
(0.151215 -0.00104078 0)
(0.151853 -0.000983056 0)
(0.152443 -0.000913634 0)
(0.15298 -0.000830322 0)
(0.153458 -0.000730376 0)
(0.15387 -0.000610321 0)
(0.154208 -0.000465701 0)
(0.154461 -0.00029074 0)
(0.154618 -7.78399e-05 0)
(0.154663 0.000183126 0)
(0.15458 0.000506009 0)
(0.154346 0.000910047 0)
(0.153935 0.00142237 0)
(0.153316 0.00208191 0)
(0.152449 0.00294553 0)
(0.151291 0.00409732 0)
(0.149797 0.00566243 0)
(0.147935 0.00782526 0)
(0.14571 0.010848 0)
(0.143234 0.0150742 0)
(0.140935 0.020801 0)
(0.140077 0.0275056 0)
(0.100029 -7.77593e-05 0)
(0.100178 -0.000147502 0)
(0.100422 -0.000211285 0)
(0.10074 -0.000270208 0)
(0.101125 -0.000325643 0)
(0.101572 -0.000378369 0)
(0.102074 -0.000428888 0)
(0.102626 -0.0004776 0)
(0.103225 -0.000524805 0)
(0.103866 -0.000570736 0)
(0.104547 -0.000615579 0)
(0.105264 -0.000659483 0)
(0.106015 -0.00070257 0)
(0.106797 -0.000744937 0)
(0.107608 -0.000786664 0)
(0.108445 -0.000827812 0)
(0.109308 -0.000868433 0)
(0.110194 -0.000908564 0)
(0.111101 -0.000948234 0)
(0.112029 -0.000987462 0)
(0.112974 -0.00102626 0)
(0.113936 -0.00106463 0)
(0.114913 -0.00110258 0)
(0.115904 -0.00114008 0)
(0.116908 -0.00117714 0)
(0.117924 -0.00121373 0)
(0.118949 -0.00124983 0)
(0.119983 -0.00128541 0)
(0.121025 -0.00132043 0)
(0.122074 -0.00135486 0)
(0.123128 -0.00138866 0)
(0.124186 -0.00142176 0)
(0.125247 -0.00145413 0)
(0.126311 -0.00148569 0)
(0.127375 -0.00151638 0)
(0.12844 -0.00154614 0)
(0.129503 -0.00157486 0)
(0.130564 -0.00160248 0)
(0.131622 -0.00162888 0)
(0.132676 -0.00165396 0)
(0.133724 -0.0016776 0)
(0.134766 -0.00169966 0)
(0.1358 -0.00171999 0)
(0.136825 -0.00173844 0)
(0.13784 -0.0017548 0)
(0.138844 -0.00176888 0)
(0.139836 -0.00178044 0)
(0.140814 -0.00178922 0)
(0.141777 -0.00179491 0)
(0.142723 -0.00179718 0)
(0.143652 -0.00179563 0)
(0.144561 -0.00178982 0)
(0.145449 -0.00177923 0)
(0.146313 -0.00176326 0)
(0.147153 -0.00174122 0)
(0.147966 -0.00171228 0)
(0.148749 -0.00167548 0)
(0.1495 -0.00162969 0)
(0.150216 -0.00157353 0)
(0.150894 -0.00150537 0)
(0.15153 -0.00142321 0)
(0.15212 -0.00132464 0)
(0.15266 -0.00120666 0)
(0.153145 -0.00106556 0)
(0.153567 -0.000896676 0)
(0.153921 -0.000694116 0)
(0.154198 -0.000450316 0)
(0.154389 -0.000155503 0)
(0.154483 0.00020306 0)
(0.154468 0.000642272 0)
(0.15433 0.00118493 0)
(0.154055 0.00186194 0)
(0.153628 0.00271555 0)
(0.153037 0.00380372 0)
(0.152278 0.00520578 0)
(0.151365 0.0070285 0)
(0.150346 0.00940935 0)
(0.149332 0.0125076 0)
(0.148546 0.0164596 0)
(0.148371 0.0212265 0)
(0.149363 0.0261582 0)
(0.100026 -0.000101604 0)
(0.100172 -0.000194842 0)
(0.100412 -0.000279688 0)
(0.100725 -0.000358155 0)
(0.101107 -0.000431951 0)
(0.101549 -0.000502113 0)
(0.102046 -0.000569325 0)
(0.102594 -0.000634118 0)
(0.103189 -0.000696894 0)
(0.103826 -0.000757966 0)
(0.104502 -0.000817582 0)
(0.105214 -0.000875941 0)
(0.10596 -0.000933206 0)
(0.106737 -0.000989506 0)
(0.107542 -0.00104495 0)
(0.108375 -0.00109961 0)
(0.109232 -0.00115357 0)
(0.110113 -0.00120687 0)
(0.111014 -0.00125955 0)
(0.111936 -0.00131163 0)
(0.112875 -0.00136314 0)
(0.113831 -0.00141407 0)
(0.114802 -0.00146442 0)
(0.115786 -0.00151419 0)
(0.116783 -0.00156335 0)
(0.117792 -0.00161188 0)
(0.11881 -0.00165976 0)
(0.119837 -0.00170693 0)
(0.120871 -0.00175335 0)
(0.121912 -0.00179898 0)
(0.122958 -0.00184375 0)
(0.124009 -0.0018876 0)
(0.125062 -0.00193046 0)
(0.126117 -0.00197224 0)
(0.127173 -0.00201286 0)
(0.128229 -0.00205222 0)
(0.129283 -0.0020902 0)
(0.130336 -0.0021267 0)
(0.131384 -0.00216158 0)
(0.132429 -0.0021947 0)
(0.133467 -0.0022259 0)
(0.134499 -0.00225499 0)
(0.135523 -0.00228179 0)
(0.136539 -0.00230607 0)
(0.137544 -0.00232759 0)
(0.138538 -0.00234609 0)
(0.139519 -0.00236124 0)
(0.140487 -0.0023727 0)
(0.14144 -0.0023801 0)
(0.142376 -0.00238297 0)
(0.143295 -0.00238081 0)
(0.144194 -0.00237304 0)
(0.145072 -0.002359 0)
(0.145927 -0.00233791 0)
(0.146758 -0.00230887 0)
(0.147563 -0.00227085 0)
(0.148338 -0.0022226 0)
(0.149083 -0.00216269 0)
(0.149794 -0.00208938 0)
(0.150469 -0.00200063 0)
(0.151103 -0.00189396 0)
(0.151695 -0.00176637 0)
(0.15224 -0.00161422 0)
(0.152734 -0.001433 0)
(0.153172 -0.00121717 0)
(0.153549 -0.000959772 0)
(0.153858 -0.000652091 0)
(0.154095 -0.000283078 0)
(0.154252 0.000161279 0)
(0.154324 0.000698803 0)
(0.154304 0.00135268 0)
(0.154189 0.00215289 0)
(0.15398 0.00313798 0)
(0.153686 0.00435711 0)
(0.153328 0.00587151 0)
(0.15295 0.00775407 0)
(0.152631 0.0100836 0)
(0.1525 0.012926 0)
(0.152749 0.0162892 0)
(0.153626 0.0200256 0)
(0.155354 0.0236627 0)
(0.100023 -0.000126146 0)
(0.100166 -0.000244374 0)
(0.1004 -0.000351632 0)
(0.100709 -0.000450963 0)
(0.101085 -0.000544373 0)
(0.101522 -0.000633153 0)
(0.102014 -0.00071818 0)
(0.102556 -0.000800127 0)
(0.103145 -0.000879506 0)
(0.103776 -0.000956714 0)
(0.104446 -0.00103207 0)
(0.105152 -0.00110582 0)
(0.105892 -0.00117817 0)
(0.106662 -0.00124929 0)
(0.107461 -0.00131932 0)
(0.108287 -0.00138835 0)
(0.109138 -0.00145648 0)
(0.110011 -0.00152376 0)
(0.110905 -0.00159025 0)
(0.111819 -0.00165597 0)
(0.11275 -0.00172095 0)
(0.113698 -0.00178519 0)
(0.114661 -0.0018487 0)
(0.115637 -0.00191144 0)
(0.116626 -0.00197342 0)
(0.117625 -0.00203458 0)
(0.118634 -0.00209489 0)
(0.119652 -0.00215431 0)
(0.120677 -0.00221277 0)
(0.121708 -0.00227021 0)
(0.122745 -0.00232656 0)
(0.123785 -0.00238172 0)
(0.124828 -0.00243562 0)
(0.125872 -0.00248815 0)
(0.126918 -0.00253919 0)
(0.127962 -0.00258863 0)
(0.129006 -0.00263632 0)
(0.130046 -0.00268213 0)
(0.131084 -0.00272587 0)
(0.132116 -0.00276738 0)
(0.133143 -0.00280645 0)
(0.134163 -0.00284287 0)
(0.135175 -0.00287637 0)
(0.136178 -0.00290671 0)
(0.13717 -0.00293356 0)
(0.138152 -0.00295659 0)
(0.139121 -0.00297543 0)
(0.140076 -0.00298964 0)
(0.141017 -0.00299874 0)
(0.141941 -0.00300218 0)
(0.142847 -0.00299935 0)
(0.143734 -0.00298953 0)
(0.144601 -0.00297191 0)
(0.145446 -0.00294555 0)
(0.146266 -0.00290938 0)
(0.147061 -0.00286214 0)
(0.147829 -0.00280236 0)
(0.148566 -0.00272832 0)
(0.149272 -0.002638 0)
(0.149944 -0.002529 0)
(0.150578 -0.00239844 0)
(0.151173 -0.00224292 0)
(0.151726 -0.00205829 0)
(0.152233 -0.00183956 0)
(0.152691 -0.00158064 0)
(0.153097 -0.00127409 0)
(0.153448 -0.000910746 0)
(0.15374 -0.000479334 0)
(0.153972 3.40351e-05 0)
(0.154143 0.000646124 0)
(0.154253 0.00137773 0)
(0.154309 0.0022543 0)
(0.154322 0.00330632 0)
(0.154312 0.00456934 0)
(0.154313 0.00608275 0)
(0.154377 0.00788633 0)
(0.154581 0.0100122 0)
(0.15503 0.0124687 0)
(0.155856 0.0152117 0)
(0.157195 0.0180989 0)
(0.159123 0.0208384 0)
(0.10002 -0.000151397 0)
(0.10016 -0.000296034 0)
(0.100389 -0.000427065 0)
(0.100691 -0.000548604 0)
(0.101061 -0.000662924 0)
(0.101491 -0.000771555 0)
(0.101977 -0.000875572 0)
(0.102512 -0.000975795 0)
(0.103094 -0.00107286 0)
(0.103718 -0.00116724 0)
(0.10438 -0.00125933 0)
(0.105079 -0.00134945 0)
(0.105811 -0.00143784 0)
(0.106573 -0.00152471 0)
(0.107365 -0.00161021 0)
(0.108182 -0.00169449 0)
(0.109024 -0.00177764 0)
(0.109888 -0.00185975 0)
(0.110773 -0.00194086 0)
(0.111678 -0.00202103 0)
(0.1126 -0.00210027 0)
(0.113538 -0.00217859 0)
(0.114491 -0.00225599 0)
(0.115457 -0.00233245 0)
(0.116435 -0.00240795 0)
(0.117424 -0.00248243 0)
(0.118422 -0.00255587 0)
(0.119428 -0.00262818 0)
(0.120442 -0.00269931 0)
(0.121461 -0.00276917 0)
(0.122486 -0.00283767 0)
(0.123514 -0.00290472 0)
(0.124544 -0.0029702 0)
(0.125576 -0.00303398 0)
(0.126608 -0.00309593 0)
(0.12764 -0.0031559 0)
(0.12867 -0.00321373 0)
(0.129697 -0.00326923 0)
(0.13072 -0.00332221 0)
(0.131739 -0.00337244 0)
(0.132751 -0.00341968 0)
(0.133757 -0.00346367 0)
(0.134754 -0.00350412 0)
(0.135743 -0.00354069 0)
(0.136721 -0.00357303 0)
(0.137688 -0.00360072 0)
(0.138642 -0.00362333 0)
(0.139583 -0.00364033 0)
(0.140508 -0.00365116 0)
(0.141418 -0.00365518 0)
(0.142311 -0.00365165 0)
(0.143184 -0.00363975 0)
(0.144038 -0.00361853 0)
(0.14487 -0.00358691 0)
(0.14568 -0.00354365 0)
(0.146464 -0.00348732 0)
(0.147223 -0.00341624 0)
(0.147953 -0.00332849 0)
(0.148654 -0.00322181 0)
(0.149324 -0.00309355 0)
(0.149959 -0.0029406 0)
(0.15056 -0.00275928 0)
(0.151123 -0.00254522 0)
(0.151647 -0.00229324 0)
(0.15213 -0.00199714 0)
(0.15257 -0.00164955 0)
(0.152968 -0.00124164 0)
(0.153323 -0.000762908 0)
(0.153636 -0.000200886 0)
(0.153912 0.000458913 0)
(0.154156 0.00123288 0)
(0.154379 0.00214004 0)
(0.154598 0.00320129 0)
(0.154837 0.00443828 0)
(0.155132 0.00587125 0)
(0.15553 0.00751511 0)
(0.156091 0.00937294 0)
(0.156889 0.0114259 0)
(0.158002 0.0136191 0)
(0.159496 0.0158451 0)
(0.161386 0.0179346 0)
(0.100017 -0.000177383 0)
(0.100154 -0.000349779 0)
(0.100377 -0.000505947 0)
(0.100672 -0.000651043 0)
(0.101035 -0.000787598 0)
(0.101458 -0.000917351 0)
(0.101935 -0.00104157 0)
(0.102463 -0.00116124 0)
(0.103036 -0.0012771 0)
(0.103652 -0.00138974 0)
(0.104306 -0.00149962 0)
(0.104995 -0.00160711 0)
(0.105718 -0.00171252 0)
(0.106471 -0.00181608 0)
(0.107253 -0.001918 0)
(0.10806 -0.00201843 0)
(0.108892 -0.00211749 0)
(0.109746 -0.00221527 0)
(0.11062 -0.00231186 0)
(0.111514 -0.00240728 0)
(0.112424 -0.00250158 0)
(0.113351 -0.00259476 0)
(0.114292 -0.00268681 0)
(0.115246 -0.00277772 0)
(0.116212 -0.00286745 0)
(0.117188 -0.00295595 0)
(0.118173 -0.00304317 0)
(0.119166 -0.00312903 0)
(0.120166 -0.00321345 0)
(0.121172 -0.00329633 0)
(0.122182 -0.00337757 0)
(0.123196 -0.00345705 0)
(0.124211 -0.00353462 0)
(0.125228 -0.00361016 0)
(0.126245 -0.00368348 0)
(0.127262 -0.00375442 0)
(0.128276 -0.00382278 0)
(0.129287 -0.00388835 0)
(0.130295 -0.0039509 0)
(0.131297 -0.00401016 0)
(0.132293 -0.00406585 0)
(0.133282 -0.00411766 0)
(0.134263 -0.00416525 0)
(0.135234 -0.00420824 0)
(0.136196 -0.0042462 0)
(0.137146 -0.00427868 0)
(0.138083 -0.00430514 0)
(0.139007 -0.004325 0)
(0.139917 -0.00433763 0)
(0.140811 -0.00434227 0)
(0.141688 -0.00433811 0)
(0.142546 -0.00432421 0)
(0.143386 -0.00429951 0)
(0.144205 -0.00426282 0)
(0.145002 -0.00421277 0)
(0.145776 -0.00414777 0)
(0.146525 -0.00406603 0)
(0.147249 -0.00396548 0)
(0.147945 -0.00384371 0)
(0.148613 -0.00369797 0)
(0.149252 -0.00352505 0)
(0.149859 -0.0033212 0)
(0.150435 -0.00308209 0)
(0.150979 -0.00280268 0)
(0.15149 -0.00247712 0)
(0.15197 -0.00209861 0)
(0.152418 -0.00165932 0)
(0.152838 -0.00115029 0)
(0.153234 -0.000561348 0)
(0.153613 0.000118882 0)
(0.153982 0.000901884 0)
(0.154357 0.00179984 0)
(0.154753 0.00282472 0)
(0.155195 0.00398676 0)
(0.155714 0.00529236 0)
(0.156345 0.00674111 0)
(0.157131 0.00832175 0)
(0.158118 0.0100071 0)
(0.159347 0.0117489 0)
(0.160844 0.0134735 0)
(0.162606 0.0150852 0)
(0.100014 -0.000204141 0)
(0.100148 -0.000405584 0)
(0.100364 -0.000588247 0)
(0.100653 -0.000758245 0)
(0.101007 -0.000918372 0)
(0.101422 -0.00107055 0)
(0.101891 -0.00121622 0)
(0.102409 -0.00135653 0)
(0.102973 -0.00149235 0)
(0.103579 -0.00162436 0)
(0.104223 -0.0017531 0)
(0.104902 -0.00187901 0)
(0.105614 -0.00200244 0)
(0.106356 -0.00212368 0)
(0.107126 -0.00224296 0)
(0.107922 -0.00236046 0)
(0.108742 -0.00247633 0)
(0.109584 -0.00259067 0)
(0.110446 -0.00270357 0)
(0.111327 -0.00281509 0)
(0.112224 -0.00292525 0)
(0.113137 -0.00303406 0)
(0.114065 -0.00314153 0)
(0.115005 -0.00324762 0)
(0.115956 -0.0033523 0)
(0.116917 -0.00345551 0)
(0.117888 -0.00355718 0)
(0.118866 -0.00365723 0)
(0.11985 -0.00375555 0)
(0.12084 -0.00385204 0)
(0.121834 -0.00394658 0)
(0.122831 -0.00403901 0)
(0.12383 -0.00412919 0)
(0.12483 -0.00421694 0)
(0.12583 -0.00430208 0)
(0.126828 -0.0043844 0)
(0.127825 -0.00446368 0)
(0.128818 -0.00453967 0)
(0.129807 -0.00461209 0)
(0.130791 -0.00468066 0)
(0.131769 -0.00474505 0)
(0.132739 -0.00480491 0)
(0.133701 -0.00485984 0)
(0.134654 -0.00490941 0)
(0.135596 -0.00495315 0)
(0.136528 -0.00499053 0)
(0.137447 -0.00502097 0)
(0.138353 -0.00504381 0)
(0.139244 -0.00505834 0)
(0.140121 -0.00506375 0)
(0.140981 -0.00505913 0)
(0.141823 -0.00504346 0)
(0.142647 -0.00501561 0)
(0.143452 -0.00497428 0)
(0.144236 -0.00491802 0)
(0.144999 -0.00484517 0)
(0.145739 -0.00475387 0)
(0.146456 -0.00464198 0)
(0.147149 -0.00450708 0)
(0.147817 -0.00434643 0)
(0.148459 -0.00415686 0)
(0.149076 -0.00393483 0)
(0.149667 -0.00367626 0)
(0.150232 -0.00337657 0)
(0.150774 -0.0030306 0)
(0.151293 -0.00263255 0)
(0.151792 -0.00217606 0)
(0.152276 -0.00165417 0)
(0.15275 -0.00105944 0)
(0.153223 -0.000384124 0)
(0.153704 0.000379686 0)
(0.154206 0.00123742 0)
(0.154745 0.00219411 0)
(0.155341 0.00325203 0)
(0.156016 0.00440918 0)
(0.156798 0.00565753 0)
(0.157712 0.006981 0)
(0.158783 0.00835356 0)
(0.160032 0.00973798 0)
(0.161467 0.0110865 0)
(0.163077 0.0123448 0)
(0.100011 -0.000231712 0)
(0.100142 -0.000463433 0)
(0.100352 -0.000673939 0)
(0.100633 -0.000870174 0)
(0.100979 -0.00105521 0)
(0.101384 -0.00123112 0)
(0.101843 -0.00139952 0)
(0.102351 -0.0015617 0)
(0.102905 -0.00171866 0)
(0.103499 -0.00187118 0)
(0.104132 -0.00201988 0)
(0.104799 -0.00216527 0)
(0.105499 -0.00230776 0)
(0.106229 -0.00244768 0)
(0.106986 -0.00258529 0)
(0.107769 -0.0027208 0)
(0.108576 -0.00285439 0)
(0.109404 -0.00298618 0)
(0.110251 -0.00311626 0)
(0.111117 -0.00324469 0)
(0.112 -0.00337152 0)
(0.112898 -0.00349676 0)
(0.11381 -0.0036204 0)
(0.114734 -0.00374241 0)
(0.115669 -0.00386275 0)
(0.116614 -0.00398134 0)
(0.117567 -0.00409812 0)
(0.118528 -0.00421297 0)
(0.119495 -0.0043258 0)
(0.120466 -0.00443647 0)
(0.121442 -0.00454483 0)
(0.12242 -0.00465074 0)
(0.123401 -0.004754 0)
(0.124381 -0.00485442 0)
(0.125362 -0.00495179 0)
(0.126341 -0.00504588 0)
(0.127317 -0.00513642 0)
(0.128291 -0.00522315 0)
(0.129259 -0.00530575 0)
(0.130223 -0.0053839 0)
(0.13118 -0.00545723 0)
(0.132129 -0.00552534 0)
(0.133071 -0.0055878 0)
(0.134003 -0.00564414 0)
(0.134925 -0.00569381 0)
(0.135836 -0.00573626 0)
(0.136735 -0.00577083 0)
(0.137621 -0.00579683 0)
(0.138493 -0.00581348 0)
(0.139351 -0.0058199 0)
(0.140193 -0.00581514 0)
(0.141018 -0.00579813 0)
(0.141826 -0.00576766 0)
(0.142616 -0.00572241 0)
(0.143387 -0.00566089 0)
(0.144138 -0.00558142 0)
(0.14487 -0.00548215 0)
(0.14558 -0.00536097 0)
(0.14627 -0.00521556 0)
(0.146938 -0.00504331 0)
(0.147585 -0.0048413 0)
(0.148212 -0.00460632 0)
(0.148818 -0.0043348 0)
(0.149407 -0.00402285 0)
(0.149978 -0.00366624 0)
(0.150536 -0.00326046 0)
(0.151083 -0.00280078 0)
(0.151626 -0.00228237 0)
(0.152169 -0.00170051 0)
(0.152722 -0.00105078 0)
(0.153293 -0.000329313 0)
(0.153896 0.000466988 0)
(0.154541 0.00133661 0)
(0.155244 0.00227717 0)
(0.156022 0.00328264 0)
(0.156889 0.00434242 0)
(0.157863 0.00544071 0)
(0.158956 0.00655607 0)
(0.160175 0.00766183 0)
(0.161521 0.00872749 0)
(0.162982 0.00972215 0)
(0.100007 -0.000260135 0)
(0.100135 -0.000523321 0)
(0.10034 -0.000762999 0)
(0.100613 -0.000986792 0)
(0.10095 -0.00119807 0)
(0.101345 -0.00139902 0)
(0.101793 -0.00159142 0)
(0.10229 -0.00177671 0)
(0.102832 -0.001956 0)
(0.103414 -0.00213019 0)
(0.104034 -0.00229998 0)
(0.104688 -0.00246594 0)
(0.105375 -0.00262853 0)
(0.106091 -0.00278814 0)
(0.106834 -0.00294506 0)
(0.107602 -0.00309954 0)
(0.108393 -0.00325177 0)
(0.109205 -0.00340189 0)
(0.110037 -0.00355001 0)
(0.110887 -0.00369621 0)
(0.111753 -0.00384052 0)
(0.112634 -0.00398296 0)
(0.113528 -0.00412352 0)
(0.114434 -0.00426217 0)
(0.115351 -0.00439886 0)
(0.116277 -0.0045335 0)
(0.117211 -0.00466602 0)
(0.118153 -0.00479629 0)
(0.1191 -0.0049242 0)
(0.120052 -0.00504959 0)
(0.121007 -0.00517231 0)
(0.121965 -0.00529216 0)
(0.122924 -0.00540896 0)
(0.123884 -0.00552247 0)
(0.124843 -0.00563247 0)
(0.1258 -0.00573868 0)
(0.126755 -0.00584083 0)
(0.127706 -0.0059386 0)
(0.128652 -0.00603165 0)
(0.129593 -0.00611963 0)
(0.130528 -0.00620213 0)
(0.131455 -0.00627871 0)
(0.132374 -0.0063489 0)
(0.133284 -0.00641218 0)
(0.134184 -0.00646799 0)
(0.135073 -0.0065157 0)
(0.13595 -0.00655464 0)
(0.136815 -0.00658406 0)
(0.137667 -0.00660314 0)
(0.138504 -0.00661098 0)
(0.139327 -0.00660658 0)
(0.140134 -0.00658886 0)
(0.140925 -0.0065566 0)
(0.1417 -0.00650847 0)
(0.142457 -0.006443 0)
(0.143197 -0.00635857 0)
(0.14392 -0.00625341 0)
(0.144624 -0.00612555 0)
(0.145311 -0.00597285 0)
(0.14598 -0.00579296 0)
(0.146632 -0.00558336 0)
(0.147268 -0.00534131 0)
(0.14789 -0.00506389 0)
(0.1485 -0.00474804 0)
(0.149099 -0.00439061 0)
(0.149692 -0.0039884 0)
(0.150282 -0.00353833 0)
(0.150874 -0.00303754 0)
(0.151475 -0.00248362 0)
(0.152091 -0.00187486 0)
(0.152731 -0.00121046 0)
(0.153404 -0.000490722 0)
(0.154122 0.000283152 0)
(0.154893 0.00110493 0)
(0.155728 0.00196646 0)
(0.156635 0.00285753 0)
(0.157624 0.00376483 0)
(0.1587 0.00467216 0)
(0.159865 0.00556107 0)
(0.161114 0.00641227 0)
(0.162439 0.00720785 0)
(0.100003 -0.000289441 0)
(0.100129 -0.000585238 0)
(0.100328 -0.000855395 0)
(0.100592 -0.00110805 0)
(0.100919 -0.00134688 0)
(0.101304 -0.00157417 0)
(0.101741 -0.00179185 0)
(0.102226 -0.00200149 0)
(0.102755 -0.00220433 0)
(0.103324 -0.00240135 0)
(0.10393 -0.00259334 0)
(0.10457 -0.00278096 0)
(0.105241 -0.00296471 0)
(0.105941 -0.00314503 0)
(0.106668 -0.00332225 0)
(0.10742 -0.00349664 0)
(0.108194 -0.00366843 0)
(0.10899 -0.00383778 0)
(0.109804 -0.00400481 0)
(0.110635 -0.00416959 0)
(0.111483 -0.00433218 0)
(0.112345 -0.00449259 0)
(0.11322 -0.00465081 0)
(0.114106 -0.00480681 0)
(0.115003 -0.00496052 0)
(0.115908 -0.00511186 0)
(0.116822 -0.00526073 0)
(0.117742 -0.00540701 0)
(0.118667 -0.00555055 0)
(0.119597 -0.00569118 0)
(0.12053 -0.00582873 0)
(0.121466 -0.005963 0)
(0.122402 -0.00609375 0)
(0.123338 -0.00622075 0)
(0.124274 -0.00634373 0)
(0.125207 -0.00646241 0)
(0.126138 -0.00657647 0)
(0.127065 -0.00668556 0)
(0.127987 -0.00678933 0)
(0.128904 -0.00688738 0)
(0.129814 -0.00697927 0)
(0.130717 -0.00706453 0)
(0.131612 -0.00714267 0)
(0.132498 -0.00721313 0)
(0.133374 -0.00727531 0)
(0.13424 -0.00732856 0)
(0.135094 -0.00737217 0)
(0.135936 -0.00740539 0)
(0.136766 -0.00742736 0)
(0.137583 -0.00743718 0)
(0.138386 -0.00743386 0)
(0.139174 -0.00741631 0)
(0.139948 -0.00738335 0)
(0.140707 -0.0073337 0)
(0.141451 -0.00726597 0)
(0.142179 -0.00717866 0)
(0.142892 -0.00707015 0)
(0.14359 -0.00693868 0)
(0.144273 -0.00678239 0)
(0.144943 -0.00659931 0)
(0.145599 -0.00638736 0)
(0.146245 -0.00614439 0)
(0.14688 -0.0058682 0)
(0.147508 -0.00555662 0)
(0.148131 -0.00520753 0)
(0.148753 -0.00481899 0)
(0.149377 -0.00438936 0)
(0.150009 -0.00391741 0)
(0.150653 -0.0034025 0)
(0.151315 -0.00284481 0)
(0.152002 -0.00224547 0)
(0.152721 -0.00160679 0)
(0.153479 -0.000932237 0)
(0.154284 -0.000226043 0)
(0.155142 0.000504937 0)
(0.156057 0.00125024 0)
(0.157033 0.00199869 0)
(0.15807 0.00273869 0)
(0.159169 0.00345788 0)
(0.160324 0.00414418 0)
(0.161528 0.00478719 0)
(0.0999992 -0.000319653 0)
(0.100123 -0.00064917 0)
(0.100316 -0.00095108 0)
(0.100571 -0.00123388 0)
(0.100889 -0.00150154 0)
(0.101262 -0.00175647 0)
(0.101687 -0.00200068 0)
(0.102159 -0.0022359 0)
(0.102674 -0.00246348 0)
(0.103228 -0.00268449 0)
(0.103819 -0.00289982 0)
(0.104443 -0.00311017 0)
(0.105098 -0.00331614 0)
(0.105782 -0.00351817 0)
(0.106491 -0.00371667 0)
(0.107225 -0.00391193 0)
(0.107981 -0.0041042 0)
(0.108757 -0.00429365 0)
(0.109552 -0.00448042 0)
(0.110364 -0.0046646 0)
(0.111191 -0.00484624 0)
(0.112032 -0.00502537 0)
(0.112885 -0.00520197 0)
(0.11375 -0.005376 0)
(0.114625 -0.00554739 0)
(0.115508 -0.00571605 0)
(0.116399 -0.00588186 0)
(0.117295 -0.00604469 0)
(0.118197 -0.00620438 0)
(0.119103 -0.00636075 0)
(0.120012 -0.00651359 0)
(0.120922 -0.00666269 0)
(0.121834 -0.00680779 0)
(0.122745 -0.00694865 0)
(0.123655 -0.00708495 0)
(0.124563 -0.0072164 0)
(0.125468 -0.00734265 0)
(0.126369 -0.00746334 0)
(0.127266 -0.00757807 0)
(0.128156 -0.00768643 0)
(0.129041 -0.00778795 0)
(0.129918 -0.00788214 0)
(0.130787 -0.00796847 0)
(0.131647 -0.00804636 0)
(0.132498 -0.00811522 0)
(0.133339 -0.00817435 0)
(0.134169 -0.00822307 0)
(0.134988 -0.00826058 0)
(0.135795 -0.00828606 0)
(0.136589 -0.00829862 0)
(0.137371 -0.00829729 0)
(0.13814 -0.00828104 0)
(0.138896 -0.00824876 0)
(0.139639 -0.00819927 0)
(0.140368 -0.00813131 0)
(0.141084 -0.00804355 0)
(0.141788 -0.00793458 0)
(0.142479 -0.00780292 0)
(0.143158 -0.00764706 0)
(0.143827 -0.00746544 0)
(0.144486 -0.00725648 0)
(0.145138 -0.00701866 0)
(0.145784 -0.00675049 0)
(0.146426 -0.00645061 0)
(0.147067 -0.00611787 0)
(0.147711 -0.00575138 0)
(0.14836 -0.00535062 0)
(0.149019 -0.00491559 0)
(0.149692 -0.00444685 0)
(0.150384 -0.00394572 0)
(0.151099 -0.00341436 0)
(0.151842 -0.00285587 0)
(0.152617 -0.00227436 0)
(0.15343 -0.00167489 0)
(0.154283 -0.00106331 0)
(0.15518 -0.000445472 0)
(0.156123 0.000171123 0)
(0.157109 0.000777585 0)
(0.158138 0.00136421 0)
(0.159204 0.00192287 0)
(0.160301 0.00244756 0)
(0.0999949 -0.000350777 0)
(0.100117 -0.000715086 0)
(0.100303 -0.00104998 0)
(0.10055 -0.00136417 0)
(0.100857 -0.00166192 0)
(0.101219 -0.00194573 0)
(0.101631 -0.00221773 0)
(0.102089 -0.00247973 0)
(0.102589 -0.00273322 0)
(0.103128 -0.00297937 0)
(0.103702 -0.00321914 0)
(0.104309 -0.00345331 0)
(0.104947 -0.00368251 0)
(0.105612 -0.00390727 0)
(0.106303 -0.004128 0)
(0.107017 -0.00434505 0)
(0.107753 -0.00455868 0)
(0.108508 -0.00476909 0)
(0.109282 -0.00497643 0)
(0.110072 -0.0051808 0)
(0.110877 -0.00538225 0)
(0.111695 -0.00558082 0)
(0.112526 -0.00577648 0)
(0.113367 -0.00596919 0)
(0.114217 -0.00615887 0)
(0.115076 -0.00634543 0)
(0.115942 -0.00652873 0)
(0.116814 -0.00670864 0)
(0.11769 -0.00688496 0)
(0.11857 -0.00705751 0)
(0.119452 -0.00722606 0)
(0.120336 -0.00739038 0)
(0.121221 -0.0075502 0)
(0.122105 -0.00770524 0)
(0.122988 -0.00785517 0)
(0.123868 -0.00799968 0)
(0.124745 -0.00813839 0)
(0.125619 -0.00827093 0)
(0.126487 -0.00839687 0)
(0.12735 -0.00851578 0)
(0.128207 -0.00862717 0)
(0.129057 -0.00873055 0)
(0.129898 -0.00882536 0)
(0.130732 -0.00891102 0)
(0.131556 -0.00898693 0)
(0.132371 -0.0090524 0)
(0.133176 -0.00910674 0)
(0.13397 -0.0091492 0)
(0.134753 -0.00917897 0)
(0.135525 -0.0091952 0)
(0.136285 -0.00919701 0)
(0.137034 -0.00918343 0)
(0.137771 -0.00915346 0)
(0.138497 -0.00910608 0)
(0.139211 -0.00904018 0)
(0.139914 -0.00895465 0)
(0.140607 -0.00884834 0)
(0.14129 -0.0087201 0)
(0.141964 -0.00856876 0)
(0.14263 -0.00839322 0)
(0.143289 -0.00819241 0)
(0.143944 -0.00796536 0)
(0.144596 -0.00771124 0)
(0.145247 -0.00742943 0)
(0.1459 -0.00711952 0)
(0.146557 -0.00678144 0)
(0.147222 -0.00641551 0)
(0.147897 -0.00602248 0)
(0.148585 -0.00560365 0)
(0.149291 -0.00516091 0)
(0.150017 -0.00469678 0)
(0.150766 -0.00421445 0)
(0.151541 -0.00371779 0)
(0.152344 -0.00321128 0)
(0.153177 -0.0027 0)
(0.154041 -0.0021894 0)
(0.154936 -0.00168507 0)
(0.155861 -0.0011924 0)
(0.156816 -0.000715765 0)
(0.157795 -0.000259963 0)
(0.158794 0.000170928 0)
(0.0999903 -0.000382806 0)
(0.10011 -0.000782937 0)
(0.100291 -0.00115199 0)
(0.100529 -0.00149877 0)
(0.100825 -0.00182783 0)
(0.101175 -0.00214174 0)
(0.101573 -0.00244271 0)
(0.102016 -0.00273268 0)
(0.102501 -0.00301323 0)
(0.103023 -0.00328562 0)
(0.10358 -0.00355091 0)
(0.104168 -0.00380992 0)
(0.104787 -0.00406337 0)
(0.105432 -0.00431182 0)
(0.106102 -0.00455572 0)
(0.106795 -0.00479545 0)
(0.107509 -0.0050313 0)
(0.108243 -0.00526349 0)
(0.108993 -0.00549218 0)
(0.10976 -0.00571749 0)
(0.110541 -0.00593947 0)
(0.111335 -0.00615815 0)
(0.11214 -0.00637352 0)
(0.112956 -0.00658552 0)
(0.113781 -0.00679407 0)
(0.114613 -0.00699907 0)
(0.115452 -0.00720037 0)
(0.116296 -0.00739781 0)
(0.117145 -0.0075912 0)
(0.117997 -0.00778034 0)
(0.118851 -0.00796499 0)
(0.119707 -0.00814487 0)
(0.120562 -0.00831973 0)
(0.121417 -0.00848924 0)