/*--------------------------------*- C++ -*----------------------------------*\
| =========                 |                                                 |
| \\      /  F ield         | OpenFOAM: The Open Source CFD Toolbox           |
|  \\    /   O peration     | Version:  2112                                  |
|   \\  /    A nd           | Website:  www.openfoam.com                      |
|    \\/     M anipulation  |                                                 |
\*---------------------------------------------------------------------------*/
FoamFile
{
    version     2.0;
    format      ascii;
    arch        "LSB;label=32;scalar=64";
    class       volVectorField;
    location    "1";
    object      flux;
}
// * * * * * * * * * * * * * * * * * * * * * * * * * * * * * * * * * * * * * //

dimensions      [0 1 -1 1 0 0 0];

internalField   nonuniform List<vector> 
512
(
(0.0528458975879 -22.533309059 0)
(0.142981550223 -22.1027593389 0)
(0.191502221033 -21.3686470197 0)
(0.185799219969 -20.5436161884 0)
(0.130063877872 -19.8572054946 0)
(0.0425673399775 -19.4871993203 0)
(-0.0514411709446 -19.5133951191 0)
(-0.127505847968 -19.9076685557 0)
(-0.166808422733 -20.5517794645 0)
(-0.158666985445 -21.2658241945 0)
(-0.103348505901 -21.844667623 0)
(-0.0137335058895 -22.1097168257 0)
(0.0889260472078 -21.9610084725 0)
(0.184112082782 -21.3945180929 0)
(0.258616482482 -20.4777135213 0)
(0.306050574407 -19.3119896427 0)
(0.321104117516 -18.0130541732 0)
(0.294476686926 -16.7222505206 0)
(0.214669456626 -15.630585871 0)
(0.0774045529184 -14.9761042172 0)
(-0.103675105368 -14.9893862044 0)
(-0.294873300224 -15.8003982104 0)
(-0.455112106029 -17.3638138347 0)
(-0.555706215354 -19.4710875777 0)
(-0.590362604576 -21.8424089452 0)
(-0.570184691199 -24.221385674 0)
(-0.512632385237 -26.4225562249 0)
(-0.433219753342 -28.3333597889 0)
(-0.342464776875 -29.8939734554 0)
(-0.246429911765 -31.0757098937 0)
(-0.148275037492 -31.8664659505 0)
(-0.0494638108421 -32.2622325795 0)
(0.162428962489 -22.6403129843 0)
(0.439349469434 -22.1779943927 0)
(0.588069354191 -21.390720167 0)
(0.569921542582 -20.5082519112 0)
(0.398144556185 -19.7773430053 0)
(0.129337847784 -19.3873352527 0)
(-0.158793446742 -19.4205329638 0)
(-0.391686324706 -19.8442738985 0)
(-0.512269396668 -20.5332902688 0)
(-0.487777093809 -21.2985517855 0)
(-0.318597809704 -21.921962647 0)
(-0.0444369188656 -22.2119087807 0)
(0.268673319188 -22.0641031443 0)
(0.557535392795 -21.4806345558 0)
(0.782647742641 -20.5383618329 0)
(0.926279099637 -19.3435840845 0)
(0.973765443501 -18.0091813145 0)
(0.896757464197 -16.6704941703 0)
(0.658403695104 -15.5191907646 0)
(0.243195280378 -14.8069452817 0)
(-0.308471891235 -14.7876319854 0)
(-0.892340514905 -15.6098901322 0)
(-1.38023257761 -17.2253743728 0)
(-1.68359133994 -19.4025485221 0)
(-1.78478644361 -21.8379249545 0)
(-1.71988894864 -24.2632295844 0)
(-1.54335467219 -26.4925080844 0)
(-1.3024888619 -28.4182397433 0)
(-1.02871027554 -29.9860037995 0)
(-0.739816335779 -31.1707529981 0)
(-0.444986305402 -31.9624979608 0)
(-0.148419503661 -32.3584539634 0)
(0.284005193384 -22.86227803 0)
(0.767777958903 -22.3338180315 0)
(1.0263734618 -21.4359240944 0)
(0.992487800816 -20.434288842 0)
(0.690522207117 -19.6115186625 0)
(0.220972360721 -19.1808555778 0)
(-0.279910493856 -19.2291811793 0)
(-0.683884500462 -19.713635446 0)
(-0.893947366217 -20.4947457751 0)
(-0.853003174579 -21.3656772192 0)
(-0.560027003517 -22.0814777711 0)
(-0.0848037545182 -22.4223000827 0)
(0.45456315969 -22.2747722691 0)
(0.946982738499 -21.6549988519 0)
(1.32714171812 -20.6605627955 0)
(1.57064083357 -19.4083834914 0)
(1.65764907461 -18.0045459529 0)
(1.53947196191 -16.5699259524 0)
(1.14644390095 -15.2959380383 0)
(0.4431839425 -14.4623430371 0)
(-0.505147530609 -14.3731728989 0)
(-1.51374449395 -15.2186802994 0)
(-2.35144130098 -16.9440503951 0)
(-2.86198150619 -19.2669434633 0)
(-3.02070313576 -21.8333989093 0)
(-2.89747625614 -24.3514812589 0)
(-2.59013746469 -26.6357158165 0)
(-2.17996761089 -28.5899535213 0)
(-1.71872140423 -30.1711035259 0)
(-1.23467699243 -31.3613475631 0)
(-0.742125520149 -32.1547671071 0)
(-0.247441812117 -32.5509607147 0)
(0.426658961736 -23.2157501517 0)
(1.15252643722 -22.5813598704 0)
(1.53783394895 -21.5064072598 0)
(1.48212425852 -20.3149013846 0)
(1.02486118827 -19.346945068 0)
(0.320506589411 -18.8538251782 0)
(-0.42518338082 -18.9279442357 0)
(-1.0244686226 -19.5079217982 0)
(-1.33829028325 -20.4327678911 0)
(-1.28114309181 -21.4705348266 0)
(-0.846909241474 -22.3336059253 0)
(-0.141084167876 -22.753556116 0)
(0.652323934587 -22.6021780649 0)
(1.3646401296 -21.9215918997 0)
(1.90595542288 -20.8456416048 0)
(2.25428752091 -19.5094114458 0)
(2.392994213 -18.0057876762 0)
(2.2510614215 -16.4272488185 0)
(1.71219515278 -14.9605098516 0)
(0.704577850087 -13.9294420252 0)
(-0.686640522389 -13.722752185 0)
(-2.177779263 -14.6051315075 0)
(-3.40436415954 -16.5109072062 0)
(-4.12826559705 -19.0679559531 0)
(-4.32705534144 -21.8384291672 0)
(-4.12104740223 -24.4956183749 0)
(-3.66259080336 -26.8588140046 0)
(-3.07018271659 -28.8523035995 0)
(-2.41440729648 -30.4512641337 0)
(-1.7316481264 -31.648467393 0)
(-1.0397928812 -32.4436529947 0)
(-0.346516307465 -32.8398450404 0)
(0.601200334029 -23.7272203663 0)
(1.62244940484 -22.9384119956 0)
(2.15960270471 -21.6053974572 0)
(2.07221889674 -20.1389285021 0)
(1.42106031031 -18.9629445329 0)
(0.430472776854 -18.3842017757 0)
(-0.606958803824 -18.4994042022 0)
(-1.43629632816 -19.2150980765 0)
(-1.87525388045 -20.3416014542 0)
(-1.80342219165 -21.6180359393 0)
(-1.20153764823 -22.6954038754 0)
(-0.219089824344 -23.2264433899 0)
(0.87054526785 -23.0605836665 0)
(1.82525096859 -22.2856118602 0)
(2.53323194506 -21.0942554558 0)
(2.99056779787 -19.6506255289 0)
(3.19873038826 -18.023964615 0)
(3.06211087419 -16.2546972368 0)
(2.3953472976 -14.5141145204 0)
(1.06206277578 -13.188283499 0)
(-0.842992271727 -12.7978030656 0)
(-2.90782200451 -13.7333929 0)
(-4.58285352379 -15.9125416858 0)
(-5.52574248668 -18.8131563887 0)
(-5.73453434666 -21.869280618 0)
(-5.40766867489 -24.7107152337 0)
(-4.76848007699 -27.1717677397 0)
(-3.9761926754 -29.2106892757 0)
(-3.11680330098 -30.8292387962 0)
(-2.23087142293 -32.0334553749 0)
(-1.33781434387 -32.8296456231 0)
(-0.445537835003 -33.2251570041 0)
(0.82106314709 -24.435314948 0)
(2.21343789174 -23.4308986472 0)
(2.93757569565 -21.7371419937 0)
(2.8033507207 -19.889658146 0)
(1.90222455148 -18.4289277375 0)
(0.552276754739 -17.74033365 0)
(-0.840631531193 -17.9199255924 0)
(-1.9455672486 -18.8187043084 0)
(-2.53975921465 -20.2120214136 0)
(-2.45804430238 -21.814302386 0)
(-1.65111296676 -23.1927046441 0)
(-0.323674063435 -23.8723875233 0)
(1.12273969941 -23.6699990986 0)
(2.34780423495 -22.7523488769 0)
(3.22344858856 -21.4044389776 0)
(3.7894329413 -19.8359729061 0)
(4.09095835903 -18.0760395653 0)
(4.00598646881 -16.0730922833 0)
(3.24540202165 -13.9620261247 0)
(1.56273357747 -12.211170432 0)
(-0.959195222875 -11.5391235075 0)
(-3.73514857307 -12.5484742559 0)
(-5.94424590391 -15.1314586542 0)
(-7.10663506316 -18.5170791664 0)
(-7.27583476395 -21.9513625752 0)
(-6.77229096307 -25.0184284819 0)
(-5.91257782433 -27.5877429242 0)
(-4.89891824484 -29.6716331399 0)
(-3.82579034606 -31.3082382857 0)
(-2.73185153987 -32.5178841722 0)
(-1.63564369581 -33.3132440069 0)
(-0.544271997937 -33.7067953613 0)
(1.10340848443 -25.3939660008 0)
(2.97153588197 -24.0951260663 0)
(3.93022295533 -21.9067316162 0)
(3.72632602485 -19.5430533977 0)
(2.49572255829 -17.7011922996 0)
(0.684973849415 -16.8786906971 0)
(-1.14614413301 -17.1598646133 0)
(-2.58234423874 -18.297841332 0)
(-3.37305291928 -20.0293059055 0)
(-3.29376380691 -22.065576397 0)
(-2.23058021687 -23.8636482496 0)
(-0.457737051596 -24.737726691 0)
(1.43056459108 -24.4570091025 0)
(2.95803102907 -23.3253208514 0)
(3.99141993043 -21.7683141901 0)
(4.65476750402 -20.0676166746 0)
(5.08017069966 -18.1871714214 0)
(5.11911759451 -15.916694954 0)
(4.32630822325 -13.3179423808 0)
(2.27351408435 -10.9623026798 0)
(-1.01164418369 -9.85794847235 0)
(-4.70398957784 -10.967926543 0)
(-7.56715597903 -14.1474383509 0)
(-8.93569444722 -18.2065123779 0)
(-8.98520900442 -22.122886813 0)
(-8.22585884937 -25.4481833461 0)
(-7.09508240599 -28.122646716 0)
(-5.83644035613 -30.2419505171 0)
(-4.53992881709 -31.8915133016 0)
(-3.23337428357 -33.1034135825 0)
(-1.93226993842 -33.8948322242 0)
(-0.642313512158 -34.2843541755 0)
(1.47048311437 -26.6768133192 0)
(3.95705508407 -24.9811801759 0)
(5.21361202994 -22.1195817157 0)
(4.90612037902 -19.0653838161 0)
(3.23440590179 -16.7179611178 0)
(0.822940597878 -15.740434842 0)
(-1.55020684865 -16.1848523452 0)
(-3.38028789473 -17.627810163 0)
(-4.42362674717 -19.7695368847 0)
(-4.37521547442 -22.3754843212 0)
(-2.98718811374 -24.7646036274 0)
(-0.620354489878 -25.8906963624 0)
(1.8289426192 -25.4555982873 0)
(3.69215169114 -24.0033523753 0)
(4.85230067695 -22.1667277484 0)
(5.58000432565 -20.3426936573 0)
(6.16641921937 -18.3941849295 0)
(6.44060098913 -15.8406185487 0)
(5.72259815876 -12.6112138343 0)
(3.29273053168 -9.39863848471 0)
(-0.962007154472 -7.62112358409 0)
(-5.87989351235 -8.86785706922 0)
(-9.56353882138 -12.9413347742 0)
(-11.0943592942 -17.9293864587 0)
(-10.8966702481 -22.4399125347 0)
(-9.77217091455 -26.0383488025 0)
(-8.30946140982 -28.7940137047 0)
(-6.78335153763 -30.9273610764 0)
(-5.25652187876 -32.5818529367 0)
(-3.73351100118 -33.7917051325 0)
(-2.2261139923 -34.5745480943 0)
(-0.739032973605 -34.9569175583 0)
(1.95122505606 -28.3830919645 0)
(5.2501516837 -26.1582040991 0)
(6.88812113525 -22.3800524587 0)
(6.42713632383 -18.4104488534 0)
(4.15819704533 -15.3916335773 0)
(0.951528235707 -14.2460357048 0)
(-2.08983179351 -14.9594922087 0)
(-4.37468650852 -16.7823312642 0)
(-5.74688999839 -19.3929059299 0)
(-5.79129717823 -22.7387335466 0)
(-3.98818623747 -25.9803839677 0)
(-0.803234381566 -27.4329546479 0)
(2.37423658463 -26.7073741744 0)
(4.60246629851 -24.7762748043 0)
(5.82174928946 -22.5606791713 0)
(6.54103891349 -20.6474601329 0)
(7.33120825396 -18.7509155591 0)
(8.01060314212 -15.9318359926 0)
(7.54729825522 -11.8984950848 0)
(4.76855920944 -7.47431732873 0)
(-0.746253475941 -4.62625303941 0)
(-7.3640951729 -6.05904925378 0)
(-12.0979206738 -11.5044840478 0)
(-13.6849833274 -17.7695011419 0)
(-13.0396901763 -22.9827907714 0)
(-11.4029094344 -26.837012532 0)
(-9.53958854294 -29.6187395418 0)
(-7.73035997214 -31.7302567126 0)
(-5.97210084515 -33.3811213368 0)
(-4.22972186235 -34.584508444 0)
(-2.51487615132 -35.3521521518 0)
(-0.833498244164 -35.7227877468 0)
(2.5829270471 -30.6451561508 0)
(6.95857483699 -27.7230692687 0)
(9.08748965278 -22.6878934991 0)
(8.40032981972 -17.5172868291 0)
(5.3166124761 -13.5964166382 0)
(1.03901128216 -12.2862536175 0)
(-2.81835462839 -13.4561132018 0)
(-5.59699475534 -15.7392046648 0)
(-7.40182788832 -18.8317013976 0)
(-7.66895449328 -23.1272132594 0)
(-5.33429866444 -27.6425601766 0)
(-0.98384959323 -29.5188040741 0)
(3.15728254104 -28.2594960481 0)
(5.76549919267 -25.6191875882 0)
(6.91670801263 -22.8777958348 0)
(7.48488613175 -20.9467082603 0)
(8.52423128951 -19.3368171914 0)
(9.86681122628 -16.3250406087 0)
(9.9513574907 -11.2817903313 0)
(6.92885155437 -5.15416077317 0)
(-0.254373117001 -0.559265720653 0)
(-9.31900901653 -2.2451137973 0)
(-15.4187647654 -9.86072224592 0)
(-16.833512656 -17.8704985018 0)
(-15.4304259431 -23.8633625812 0)
(-13.0901452998 -27.9017071053 0)
(-10.7560835002 -30.6089015685 0)
(-8.66454243514 -32.6461995534 0)
(-6.68364774446 -34.2901450299 0)
(-4.71902640866 -35.4841181337 0)
(-2.79525364368 -36.2268855367 0)
(-0.924350771116 -36.5791207139 0)
(3.41226849711 -33.6373508556 0)
(9.22878300954 -29.8157837447 0)
(11.991012355 -23.0291412289 0)
(10.9728747543 -16.3112051575 0)
(6.77371365114 -11.1479792592 0)
(1.02167995391 -9.70588718951 0)
(-3.81630731713 -11.6737966861 0)
(-7.06248060641 -14.4930584815 0)
(-9.44089429571 -17.9690330883 0)
(-10.1967265678 -23.459977168 0)
(-7.1839816448 -29.9637016122 0)
(-1.11170231728 -32.3876634188 0)
(4.32404482754 -30.1559066719 0)
(7.29331640515 -26.4863141198 0)
(8.15798895342 -22.9911769306 0)
(8.31152823519 -21.1643951435 0)
(9.64204207976 -20.271821974 0)
(12.0381165722 -17.2246330467 0)
(13.132738173 -10.9345818626 0)
(10.1298215147 -2.44910615251 0)
(0.708270011994 5.07972158631 0)
(-12.0148234355 3.05313977769 0)
(-19.910613026 -8.1165007442 0)
(-20.6863034951 -18.4737761243 0)
(-18.055294478 -25.2305967367 0)
(-14.775678928 -29.297207815 0)
(-11.911834767 -31.7645337424 0)
(-9.57098170285 -33.6584851054 0)
(-7.39106013531 -35.309669141 0)
(-5.19809211572 -36.4945079777 0)
(-3.06237744141 -37.1972381608 0)
(-1.00961583277 -37.5214269749 0)
(4.49371060257 -37.5845963165 0)
(12.2626796503 -32.6494000552 0)
(15.8397789464 -23.3528084507 0)
(14.3409108046 -14.7160102702 0)
(8.61927146009 -7.76876437889 0)
(0.776102568706 -6.27249114658 0)
(-5.21194027441 -9.67806822547 0)
(-8.74461295644 -13.0821248243 0)
(-11.8852872315 -16.6019768194 0)
(-13.6662887552 -23.5388609668 0)
(-9.79814178985 -33.304053597 0)
(-1.07995212309 -36.4196606906 0)
(6.10795719056 -32.410904654 0)
(9.34786406332 -27.3088650854 0)
(9.57766750075 -22.686411832 0)
(8.84456361003 -21.1473784349 0)
(10.4941123379 -21.7442336059 0)
(14.535431282 -18.9335869059 0)
(17.3391209378 -11.1347575865 0)
(14.9360032788 0.496700143205 0)
(2.4967498481 13.109254021 0)
(-15.9171201818 10.6389100949 0)
(-26.1822227164 -6.57359458491 0)
(-25.3905606523 -19.9753688473 0)
(-20.8421417885 -27.268568185 0)
(-16.3571138026 -31.0907075578 0)
(-12.9367221454 -33.0616642054 0)
(-10.4371101344 -34.7296314603 0)
(-8.10165918061 -36.4439487867 0)
(-5.66281091857 -37.6235420405 0)
(-3.30871314226 -38.2603656131 0)
(-1.08644517816 -38.542877803 0)
(5.87986662777 -42.7653547099 0)
(16.3446769425 -36.5730588332 0)
(20.9577072475 -23.5111774783 0)
(18.7648967901 -12.6980524587 0)
(10.9954732129 -3.02637732709 0)
(0.0670280306224 -1.61317167915 0)
(-7.22112415597 -7.68222493785 0)
(-10.5244349034 -11.6417190658 0)
(-14.669262367 -14.3801100038 0)
(-18.5477649566 -22.9100844085 0)
(-13.6243815067 -38.3061837712 0)
(-0.665127845767 -42.2320773594 0)
(8.87944263017 -34.9384768912 0)
(12.1555628161 -28.0106906677 0)
(11.2387322786 -21.6098791781 0)
(8.78261734824 -20.5953953808 0)
(10.7489378443 -24.0674462462 0)
(17.3428545819 -21.8884159225 0)
(22.8478816975 -12.2918072342 0)
(22.2518273185 3.19862774477 0)
(5.77937498783 24.9110035627 0)
(-21.8562477385 21.9117638419 0)
(-35.2177524971 -5.98182776078 0)
(-31.0337902952 -23.0025546245 0)
(-23.6129638333 -30.1727401834 0)
(-17.6722269382 -33.3454386084 0)
(-13.7312967182 -34.4329548683 0)
(-11.2621239935 -35.7876201998 0)
(-8.83801542539 -37.7103353198 0)
(-6.10630052895 -38.8866057355 0)
(-3.52204532269 -39.4104683171 0)
(-1.15087192773 -39.6333689366 0)
(7.58985854093 -49.4939600233 0)
(21.8897682661 -42.213875621 0)
(27.7772821336 -23.1070695199 0)
(24.5833108802 -10.3944329454 0)
(14.1617118499 3.7809724696 0)
(-1.55182123667 4.91708295833 0)
(-10.2262139678 -6.21337903991 0)
(-12.0935554894 -10.5061786533 0)
(-17.5194699028 -10.7099168536 0)
(-25.6293256389 -20.5643239719 0)
(-19.4591382653 -46.1753873703 0)
(0.603901316931 -50.8488480317 0)
(13.2186505364 -37.3740110346 0)
(16.0121629199 -28.5801177443 0)
(13.2853151442 -19.1860426926 0)
(7.61578007599 -18.9209916124 0)
(9.84760206706 -27.8025798037 0)
(20.423250788 -26.6967116432 0)
(29.8826427714 -14.9212870982 0)
(33.5374086773 4.34619263979 0)
(11.8533178967 42.8918584743 0)
(-31.3635358435 39.409446671 0)
(-48.6393819496 -8.10705321889 0)
(-37.4860168636 -28.4911629535 0)
(-26.0135837805 -34.0750647606 0)
(-18.4872211451 -36.1202540781 0)
(-14.1578129411 -35.7362264855 0)
(-12.0758003602 -36.7023812307 0)
(-9.65115194845 -39.1621115703 0)
(-6.51287741722 -40.3114103765 0)
(-3.68209474281 -40.6345658911 0)
(-1.19789548791 -40.7784401814 0)
(9.51990882892 -58.0424212519 0)
(29.5381221942 -50.811211927 0)
(36.8674285853 -21.104195028 0)
(32.2089177849 -8.45627981704 0)
(18.6512311648 13.8484122756 0)
(-4.93014772414 14.5142694243 0)
(-14.9327549618 -6.45364054728 0)
(-12.7727038102 -10.3925815285 0)
(-19.6983350263 -4.62672220785 0)
(-36.2805002149 -14.2790487604 0)
(-28.7666435366 -59.2786192702 0)
(3.73556032208 -64.0022907897 0)
(20.0138077739 -38.6388626774 0)
(21.2495469872 -29.2990908885 0)
(16.0682953446 -14.4793966008 0)
(4.47434879266 -14.9593195472 0)
(6.86107782891 -34.0339135968 0)
(23.7835009346 -34.171668333 0)
(38.369333839 -19.4229754687 0)
(51.1584001048 0.675092027885 0)
(23.3110020034 71.3806761425 0)
(-47.3557035851 67.9166380965 0)
(-69.1680573093 -17.0143786102 0)
(-44.017796066 -37.6788302987 0)
(-27.4275093956 -38.8610886956 0)
(-18.5028078006 -39.5014228194 0)
(-14.0223602945 -36.7009866257 0)
(-12.9750665359 -37.2427910188 0)
(-10.6425299983 -40.9405367875 0)
(-6.84252768932 -41.9415882936 0)
(-3.75556022516 -41.9024700393 0)
(-1.2228090729 -41.958728205 0)
(11.2054632034 -68.3985791698 0)
(40.3588813781 -65.0274704209 0)
(48.9547481886 -14.8364129135 0)
(42.059614532 -8.93218332586 0)
(25.6469864705 29.3257412316 0)
(-11.7028476481 29.5200879366 0)
(-22.6796394441 -10.9509487403 0)
(-11.1800963197 -12.7049711522 0)
(-19.4627035188 5.31125160023 0)
(-52.9552741701 0.843277222444 0)
(-44.32075928 -82.4505817733 0)
(10.9237796133 -84.6772397276 0)
(30.570250487 -35.8974984403 0)
(28.0918959582 -31.3877095507 0)
(20.4552008149 -5.94746793276 0)
(-2.16147842202 -6.34856604467 0)
(0.241427674162 -44.9990110916 0)
(27.728719852 -45.3677550836 0)
(47.3060229519 -25.2614804456 0)
(78.9392344829 -15.6472840467 0)
(45.474090931 118.412601302 0)
(-75.5610632199 116.791306799 0)
(-101.437116147 -41.9876097623 0)
(-48.4093719063 -51.7363026709 0)
(-26.9248800408 -43.7819170924 0)
(-17.4071701101 -43.7421996108 0)
(-13.0284970408 -36.8295013279 0)
(-14.1955754411 -36.9933327197 0)
(-12.0005505859 -43.3924842442 0)
(-6.99384404313 -43.8313390008 0)
(-3.69066469851 -43.1457246428 0)
(-1.22602457075 -43.1521556385 0)
)
;

boundaryField
{
    left
    {
        type            calculated;
        value           nonuniform List<vector> 
16
(
(0 -22.533309059 0)
(0 -22.6403129843 0)
(0 -22.86227803 0)
(0 -23.2157501517 0)
(0 -23.7272203663 0)
(0 -24.435314948 0)
(0 -25.3939660008 0)
(0 -26.6768133192 0)
(0 -28.3830919645 0)
(0 -30.6451561508 0)
(0 -33.6373508556 0)
(0 -37.5845963165 0)
(0 -42.7653547099 0)
(0 -49.4939600233 0)
(0 -58.0424212519 0)
(0 -68.3985791698 0)
)
;
    }
    right
    {
        type            calculated;
        value           nonuniform List<vector> 
16
(
(0 -32.2622325795 0)
(0 -32.3584539634 0)
(0 -32.5509607147 0)
(0 -32.8398450404 0)
(0 -33.2251570041 0)
(0 -33.7067953613 0)
(0 -34.2843541755 0)
(0 -34.9569175583 0)
(0 -35.7227877468 0)
(0 -36.5791207139 0)
(0 -37.5214269749 0)
(0 -38.542877803 0)
(0 -39.6333689366 0)
(0 -40.7784401814 0)
(0 -41.958728205 0)
(0 -43.1521556385 0)
)
;
    }
    interface
    {
        type            calculated;
        value           nonuniform List<vector> 
32
(
(11.2054632034 -73.99802736 0)
(40.3588813781 -73.99802736 0)
(48.9547481886 -10.156731583 0)
(42.059614532 -10.156731583 0)
(25.6469864705 38.7647897188 0)
(-11.7028476481 38.7647897188 0)
(-22.6796394441 -14.6977905291 0)
(-11.1800963197 -14.6977905291 0)
(-19.4627035188 11.4561801899 0)
(-52.9552741701 11.4561801899 0)
(-44.32075928 -97.3683907364 0)
(10.9237796133 -97.3683907364 0)
(30.570250487 -33.0151012353 0)
(28.0918959582 -33.0151012353 0)
(20.4552008149 -0.484436104467 0)
(-2.16147842202 -0.484436104467 0)
(0.241427674162 -52.0442135633 0)
(27.728719852 -52.0442135633 0)
(47.3060229519 -28.3500279408 0)
(78.9392344829 -28.3500279408 0)
(45.474090931 147.874798041 0)
(-75.5610632199 147.874798041 0)
(-101.437116147 -60.1041855478 0)
(-48.4093719063 -60.1041855478 0)
(-26.9248800408 -46.1264968469 0)
(-17.4071701101 -46.1264968469 0)
(-13.0284970408 -36.6042160799 0)
(-14.1955754411 -36.6042160799 0)
(-12.0005505859 -44.8481462918 0)
(-6.99384404313 -44.8481462918 0)
(-3.69066469851 -43.7493616736 0)
(-1.22602457075 -43.7493616736 0)
)
;
    }
    bottom
    {
        type            calculated;
        value           nonuniform List<vector> 
32
(
(0.0528458975879 -22.507045709 0)
(0.142981550223 -22.0842785283 0)
(0.191502221033 -21.3631933072 0)
(0.185799219969 -20.5522607601 0)
(0.130063877872 -19.8767995475 0)
(0.0425673399775 -19.5117497371 0)
(-0.0514411709446 -19.5362608277 0)
(-0.127505847968 -19.9232791047 0)
(-0.166808422733 -20.5563076114 0)
(-0.158666985445 -21.2577464865 0)
(-0.103348505901 -21.825643495 0)
(-0.0137335058895 -22.0845345337 0)
(0.0889260472078 -21.9355115421 0)
(0.184112082782 -21.3731261561 0)
(0.258616482482 -20.4626148798 0)
(0.306050574407 -19.3041942962 0)
(0.321104117516 -18.0142102846 0)
(0.294476686926 -16.7353613561 0)
(0.214669456626 -15.6583967892 0)
(0.0774045529184 -15.0180057031 0)
(-0.103675105368 -15.0391603658 0)
(-0.294873300224 -15.847406546 0)
(-0.455112106029 -17.3981467676 0)
(-0.555706215354 -19.4883033942 0)
(-0.590362604576 -21.8437964905 0)
(-0.570184691199 -24.2112042308 0)
(-0.512632385237 -26.40527402 0)
(-0.433219753342 -28.3122633127 0)
(-0.342464776875 -29.8710320468 0)
(-0.246429911765 -31.0519815277 0)
(-0.148275037492 -31.8424713409 0)
(-0.0494638108421 -32.2381818277 0)
)
;
    }
    defaultFaces
    {
        type            empty;
    }
}


// ************************************************************************* //
