/*--------------------------------*- C++ -*----------------------------------*\
| =========                 |                                                 |
| \\      /  F ield         | OpenFOAM: The Open Source CFD Toolbox           |
|  \\    /   O peration     | Version:  2112                                  |
|   \\  /    A nd           | Website:  www.openfoam.com                      |
|    \\/     M anipulation  |                                                 |
\*---------------------------------------------------------------------------*/
FoamFile
{
    version     2.0;
    format      ascii;
    arch        "LSB;label=32;scalar=64";
    class       volScalarField;
    location    "1";
    object      gradTy;
}
// * * * * * * * * * * * * * * * * * * * * * * * * * * * * * * * * * * * * * //

dimensions      [0 -1 0 1 0 0 0];

internalField   nonuniform List<scalar> 
512
(
-22.533309059
-22.1027593389
-21.3686470197
-20.5436161884
-19.8572054946
-19.4871993203
-19.5133951191
-19.9076685557
-20.5517794645
-21.2658241945
-21.844667623
-22.1097168257
-21.9610084725
-21.3945180929
-20.4777135213
-19.3119896427
-18.0130541732
-16.7222505206
-15.630585871
-14.9761042172
-14.9893862044
-15.8003982104
-17.3638138347
-19.4710875777
-21.8424089452
-24.221385674
-26.4225562249
-28.3333597889
-29.8939734554
-31.0757098937
-31.8664659505
-32.2622325795
-22.6403129843
-22.1779943927
-21.390720167
-20.5082519112
-19.7773430053
-19.3873352527
-19.4205329638
-19.8442738985
-20.5332902688
-21.2985517855
-21.921962647
-22.2119087807
-22.0641031443
-21.4806345558
-20.5383618329
-19.3435840845
-18.0091813145
-16.6704941703
-15.5191907646
-14.8069452817
-14.7876319854
-15.6098901322
-17.2253743728
-19.4025485221
-21.8379249545
-24.2632295844
-26.4925080844
-28.4182397433
-29.9860037995
-31.1707529981
-31.9624979608
-32.3584539634
-22.86227803
-22.3338180315
-21.4359240944
-20.434288842
-19.6115186625
-19.1808555778
-19.2291811793
-19.713635446
-20.4947457751
-21.3656772192
-22.0814777711
-22.4223000827
-22.2747722691
-21.6549988519
-20.6605627955
-19.4083834914
-18.0045459529
-16.5699259524
-15.2959380383
-14.4623430371
-14.3731728989
-15.2186802994
-16.9440503951
-19.2669434633
-21.8333989093
-24.3514812589
-26.6357158165
-28.5899535213
-30.1711035259
-31.3613475631
-32.1547671071
-32.5509607147
-23.2157501517
-22.5813598704
-21.5064072598
-20.3149013846
-19.346945068
-18.8538251782
-18.9279442357
-19.5079217982
-20.4327678911
-21.4705348266
-22.3336059253
-22.753556116
-22.6021780649
-21.9215918997
-20.8456416048
-19.5094114458
-18.0057876762
-16.4272488185
-14.9605098516
-13.9294420252
-13.722752185
-14.6051315075
-16.5109072062
-19.0679559531
-21.8384291672
-24.4956183749
-26.8588140046
-28.8523035995
-30.4512641337
-31.648467393
-32.4436529947
-32.8398450404
-23.7272203663
-22.9384119956
-21.6053974572
-20.1389285021
-18.9629445329
-18.3842017757
-18.4994042022
-19.2150980765
-20.3416014542
-21.6180359393
-22.6954038754
-23.2264433899
-23.0605836665
-22.2856118602
-21.0942554558
-19.6506255289
-18.023964615
-16.2546972368
-14.5141145204
-13.188283499
-12.7978030656
-13.7333929
-15.9125416858
-18.8131563887
-21.869280618
-24.7107152337
-27.1717677397
-29.2106892757
-30.8292387962
-32.0334553749
-32.8296456231
-33.2251570041
-24.435314948
-23.4308986472
-21.7371419937
-19.889658146
-18.4289277375
-17.74033365
-17.9199255924
-18.8187043084
-20.2120214136
-21.814302386
-23.1927046441
-23.8723875233
-23.6699990986
-22.7523488769
-21.4044389776
-19.8359729061
-18.0760395653
-16.0730922833
-13.9620261247
-12.211170432
-11.5391235075
-12.5484742559
-15.1314586542
-18.5170791664
-21.9513625752
-25.0184284819
-27.5877429242
-29.6716331399
-31.3082382857
-32.5178841722
-33.3132440069
-33.7067953613
-25.3939660008
-24.0951260663
-21.9067316162
-19.5430533977
-17.7011922996
-16.8786906971
-17.1598646133
-18.297841332
-20.0293059055
-22.065576397
-23.8636482496
-24.737726691
-24.4570091025
-23.3253208514
-21.7683141901
-20.0676166746
-18.1871714214
-15.916694954
-13.3179423808
-10.9623026798
-9.85794847235
-10.967926543
-14.1474383509
-18.2065123779
-22.122886813
-25.4481833461
-28.122646716
-30.2419505171
-31.8915133016
-33.1034135825
-33.8948322242
-34.2843541755
-26.6768133192
-24.9811801759
-22.1195817157
-19.0653838161
-16.7179611178
-15.740434842
-16.1848523452
-17.627810163
-19.7695368847
-22.3754843212
-24.7646036274
-25.8906963624
-25.4555982873
-24.0033523753
-22.1667277484
-20.3426936573
-18.3941849295
-15.8406185487
-12.6112138343
-9.39863848471
-7.62112358409
-8.86785706922
-12.9413347742
-17.9293864587
-22.4399125347
-26.0383488025
-28.7940137047
-30.9273610764
-32.5818529367
-33.7917051325
-34.5745480943
-34.9569175583
-28.3830919645
-26.1582040991
-22.3800524587
-18.4104488534
-15.3916335773
-14.2460357048
-14.9594922087
-16.7823312642
-19.3929059299
-22.7387335466
-25.9803839677
-27.4329546479
-26.7073741744
-24.7762748043
-22.5606791713
-20.6474601329
-18.7509155591
-15.9318359926
-11.8984950848
-7.47431732873
-4.62625303941
-6.05904925378
-11.5044840478
-17.7695011419
-22.9827907714
-26.837012532
-29.6187395418
-31.7302567126
-33.3811213368
-34.584508444
-35.3521521518
-35.7227877468
-30.6451561508
-27.7230692687
-22.6878934991
-17.5172868291
-13.5964166382
-12.2862536175
-13.4561132018
-15.7392046648
-18.8317013976
-23.1272132594
-27.6425601766
-29.5188040741
-28.2594960481
-25.6191875882
-22.8777958348
-20.9467082603
-19.3368171914
-16.3250406087
-11.2817903313
-5.15416077317
-0.559265720653
-2.2451137973
-9.86072224592
-17.8704985018
-23.8633625812
-27.9017071053
-30.6089015685
-32.6461995534
-34.2901450299
-35.4841181337
-36.2268855367
-36.5791207139
-33.6373508556
-29.8157837447
-23.0291412289
-16.3112051575
-11.1479792592
-9.70588718951
-11.6737966861
-14.4930584815
-17.9690330883
-23.459977168
-29.9637016122
-32.3876634188
-30.1559066719
-26.4863141198
-22.9911769306
-21.1643951435
-20.271821974
-17.2246330467
-10.9345818626
-2.44910615251
5.07972158631
3.05313977769
-8.1165007442
-18.4737761243
-25.2305967367
-29.297207815
-31.7645337424
-33.6584851054
-35.309669141
-36.4945079777
-37.1972381608
-37.5214269749
-37.5845963165
-32.6494000552
-23.3528084507
-14.7160102702
-7.76876437889
-6.27249114658
-9.67806822547
-13.0821248243
-16.6019768194
-23.5388609668
-33.304053597
-36.4196606906
-32.410904654
-27.3088650854
-22.686411832
-21.1473784349
-21.7442336059
-18.9335869059
-11.1347575865
0.496700143205
13.109254021
10.6389100949
-6.57359458491
-19.9753688473
-27.268568185
-31.0907075578
-33.0616642054
-34.7296314603
-36.4439487867
-37.6235420405
-38.2603656131
-38.542877803
-42.7653547099
-36.5730588332
-23.5111774783
-12.6980524587
-3.02637732709
-1.61317167915
-7.68222493785
-11.6417190658
-14.3801100038
-22.9100844085
-38.3061837712
-42.2320773594
-34.9384768912
-28.0106906677
-21.6098791781
-20.5953953808
-24.0674462462
-21.8884159225
-12.2918072342
3.19862774477
24.9110035627
21.9117638419
-5.98182776078
-23.0025546245
-30.1727401834
-33.3454386084
-34.4329548683
-35.7876201998
-37.7103353198
-38.8866057355
-39.4104683171
-39.6333689366
-49.4939600233
-42.213875621
-23.1070695199
-10.3944329454
3.7809724696
4.91708295833
-6.21337903991
-10.5061786533
-10.7099168536
-20.5643239719
-46.1753873703
-50.8488480317
-37.3740110346
-28.5801177443
-19.1860426926
-18.9209916124
-27.8025798037
-26.6967116432
-14.9212870982
4.34619263979
42.8918584743
39.409446671
-8.10705321889
-28.4911629535
-34.0750647606
-36.1202540781
-35.7362264855
-36.7023812307
-39.1621115703
-40.3114103765
-40.6345658911
-40.7784401814
-58.0424212519
-50.811211927
-21.104195028
-8.45627981704
13.8484122756
14.5142694243
-6.45364054728
-10.3925815285
-4.62672220785
-14.2790487604
-59.2786192702
-64.0022907897
-38.6388626774
-29.2990908885
-14.4793966008
-14.9593195472
-34.0339135968
-34.171668333
-19.4229754687
0.675092027885
71.3806761425
67.9166380965
-17.0143786102
-37.6788302987
-38.8610886956
-39.5014228194
-36.7009866257
-37.2427910188
-40.9405367875
-41.9415882936
-41.9024700393
-41.958728205
-68.3985791698
-65.0274704209
-14.8364129135
-8.93218332586
29.3257412316
29.5200879366
-10.9509487403
-12.7049711522
5.31125160023
0.843277222444
-82.4505817733
-84.6772397276
-35.8974984403
-31.3877095507
-5.94746793276
-6.34856604467
-44.9990110916
-45.3677550836
-25.2614804456
-15.6472840467
118.412601302
116.791306799
-41.9876097623
-51.7363026709
-43.7819170924
-43.7421996108
-36.8295013279
-36.9933327197
-43.3924842442
-43.8313390008
-43.1457246428
-43.1521556385
)
;

boundaryField
{
    left
    {
        type            calculated;
        value           nonuniform List<scalar> 
16
(
-22.533309059
-22.6403129843
-22.86227803
-23.2157501517
-23.7272203663
-24.435314948
-25.3939660008
-26.6768133192
-28.3830919645
-30.6451561508
-33.6373508556
-37.5845963165
-42.7653547099
-49.4939600233
-58.0424212519
-68.3985791698
)
;
    }
    right
    {
        type            calculated;
        value           nonuniform List<scalar> 
16
(
-32.2622325795
-32.3584539634
-32.5509607147
-32.8398450404
-33.2251570041
-33.7067953613
-34.2843541755
-34.9569175583
-35.7227877468
-36.5791207139
-37.5214269749
-38.542877803
-39.6333689366
-40.7784401814
-41.958728205
-43.1521556385
)
;
    }
    interface
    {
        type            calculated;
        value           nonuniform List<scalar> 
32
(
-73.99802736
-73.99802736
-10.156731583
-10.156731583
38.7647897188
38.7647897188
-14.6977905291
-14.6977905291
11.4561801899
11.4561801899
-97.3683907364
-97.3683907364
-33.0151012353
-33.0151012353
-0.484436104467
-0.484436104467
-52.0442135633
-52.0442135633
-28.3500279408
-28.3500279408
147.874798041
147.874798041
-60.1041855478
-60.1041855478
-46.1264968469
-46.1264968469
-36.6042160799
-36.6042160799
-44.8481462918
-44.8481462918
-43.7493616736
-43.7493616736
)
;
    }
    bottom
    {
        type            calculated;
        value           nonuniform List<scalar> 
32
(
-22.507045709
-22.0842785283
-21.3631933072
-20.5522607601
-19.8767995475
-19.5117497371
-19.5362608277
-19.9232791047
-20.5563076114
-21.2577464865
-21.825643495
-22.0845345337
-21.9355115421
-21.3731261561
-20.4626148798
-19.3041942962
-18.0142102846
-16.7353613561
-15.6583967892
-15.0180057031
-15.0391603658
-15.847406546
-17.3981467676
-19.4883033942
-21.8437964905
-24.2112042308
-26.40527402
-28.3122633127
-29.8710320468
-31.0519815277
-31.8424713409
-32.2381818277
)
;
    }
    defaultFaces
    {
        type            empty;
    }
}


// ************************************************************************* //
