/*--------------------------------*- C++ -*----------------------------------*\
| =========                 |                                                 |
| \\      /  F ield         | OpenFOAM: The Open Source CFD Toolbox           |
|  \\    /   O peration     | Version:  2112                                  |
|   \\  /    A nd           | Website:  www.openfoam.com                      |
|    \\/     M anipulation  |                                                 |
\*---------------------------------------------------------------------------*/
FoamFile
{
    version     2.0;
    format      ascii;
    arch        "LSB;label=32;scalar=64";
    class       volScalarField;
    location    "1";
    object      gradTx;
}
// * * * * * * * * * * * * * * * * * * * * * * * * * * * * * * * * * * * * * //

dimensions      [0 -1 0 1 0 0 0];

internalField   nonuniform List<scalar> 
512
(
0.0528458975879
0.142981550223
0.191502221033
0.185799219969
0.130063877872
0.0425673399775
-0.0514411709446
-0.127505847968
-0.166808422733
-0.158666985445
-0.103348505901
-0.0137335058895
0.0889260472078
0.184112082782
0.258616482482
0.306050574407
0.321104117516
0.294476686926
0.214669456626
0.0774045529184
-0.103675105368
-0.294873300224
-0.455112106029
-0.555706215354
-0.590362604576
-0.570184691199
-0.512632385237
-0.433219753342
-0.342464776875
-0.246429911765
-0.148275037492
-0.0494638108421
0.162428962489
0.439349469434
0.588069354191
0.569921542582
0.398144556185
0.129337847784
-0.158793446742
-0.391686324706
-0.512269396668
-0.487777093809
-0.318597809704
-0.0444369188656
0.268673319188
0.557535392795
0.782647742641
0.926279099637
0.973765443501
0.896757464197
0.658403695104
0.243195280378
-0.308471891235
-0.892340514905
-1.38023257761
-1.68359133994
-1.78478644361
-1.71988894864
-1.54335467219
-1.3024888619
-1.02871027554
-0.739816335779
-0.444986305402
-0.148419503661
0.284005193384
0.767777958903
1.0263734618
0.992487800816
0.690522207117
0.220972360721
-0.279910493856
-0.683884500462
-0.893947366217
-0.853003174579
-0.560027003517
-0.0848037545182
0.45456315969
0.946982738499
1.32714171812
1.57064083357
1.65764907461
1.53947196191
1.14644390095
0.4431839425
-0.505147530609
-1.51374449395
-2.35144130098
-2.86198150619
-3.02070313576
-2.89747625614
-2.59013746469
-2.17996761089
-1.71872140423
-1.23467699243
-0.742125520149
-0.247441812117
0.426658961736
1.15252643722
1.53783394895
1.48212425852
1.02486118827
0.320506589411
-0.42518338082
-1.0244686226
-1.33829028325
-1.28114309181
-0.846909241474
-0.141084167876
0.652323934587
1.3646401296
1.90595542288
2.25428752091
2.392994213
2.2510614215
1.71219515278
0.704577850087
-0.686640522389
-2.177779263
-3.40436415954
-4.12826559705
-4.32705534144
-4.12104740223
-3.66259080336
-3.07018271659
-2.41440729648
-1.7316481264
-1.0397928812
-0.346516307465
0.601200334029
1.62244940484
2.15960270471
2.07221889674
1.42106031031
0.430472776854
-0.606958803824
-1.43629632816
-1.87525388045
-1.80342219165
-1.20153764823
-0.219089824344
0.87054526785
1.82525096859
2.53323194506
2.99056779787
3.19873038826
3.06211087419
2.3953472976
1.06206277578
-0.842992271727
-2.90782200451
-4.58285352379
-5.52574248668
-5.73453434666
-5.40766867489
-4.76848007699
-3.9761926754
-3.11680330098
-2.23087142293
-1.33781434387
-0.445537835003
0.82106314709
2.21343789174
2.93757569565
2.8033507207
1.90222455148
0.552276754739
-0.840631531193
-1.9455672486
-2.53975921465
-2.45804430238
-1.65111296676
-0.323674063435
1.12273969941
2.34780423495
3.22344858856
3.7894329413
4.09095835903
4.00598646881
3.24540202165
1.56273357747
-0.959195222875
-3.73514857307
-5.94424590391
-7.10663506316
-7.27583476395
-6.77229096307
-5.91257782433
-4.89891824484
-3.82579034606
-2.73185153987
-1.63564369581
-0.544271997937
1.10340848443
2.97153588197
3.93022295533
3.72632602485
2.49572255829
0.684973849415
-1.14614413301
-2.58234423874
-3.37305291928
-3.29376380691
-2.23058021687
-0.457737051596
1.43056459108
2.95803102907
3.99141993043
4.65476750402
5.08017069966
5.11911759451
4.32630822325
2.27351408435
-1.01164418369
-4.70398957784
-7.56715597903
-8.93569444722
-8.98520900442
-8.22585884937
-7.09508240599
-5.83644035613
-4.53992881709
-3.23337428357
-1.93226993842
-0.642313512158
1.47048311437
3.95705508407
5.21361202994
4.90612037902
3.23440590179
0.822940597878
-1.55020684865
-3.38028789473
-4.42362674717
-4.37521547442
-2.98718811374
-0.620354489878
1.8289426192
3.69215169114
4.85230067695
5.58000432565
6.16641921937
6.44060098913
5.72259815876
3.29273053168
-0.962007154472
-5.87989351235
-9.56353882138
-11.0943592942
-10.8966702481
-9.77217091455
-8.30946140982
-6.78335153763
-5.25652187876
-3.73351100118
-2.2261139923
-0.739032973605
1.95122505606
5.2501516837
6.88812113525
6.42713632383
4.15819704533
0.951528235707
-2.08983179351
-4.37468650852
-5.74688999839
-5.79129717823
-3.98818623747
-0.803234381566
2.37423658463
4.60246629851
5.82174928946
6.54103891349
7.33120825396
8.01060314212
7.54729825522
4.76855920944
-0.746253475941
-7.3640951729
-12.0979206738
-13.6849833274
-13.0396901763
-11.4029094344
-9.53958854294
-7.73035997214
-5.97210084515
-4.22972186235
-2.51487615132
-0.833498244164
2.5829270471
6.95857483699
9.08748965278
8.40032981972
5.3166124761
1.03901128216
-2.81835462839
-5.59699475534
-7.40182788832
-7.66895449328
-5.33429866444
-0.98384959323
3.15728254104
5.76549919267
6.91670801263
7.48488613175
8.52423128951
9.86681122628
9.9513574907
6.92885155437
-0.254373117001
-9.31900901653
-15.4187647654
-16.833512656
-15.4304259431
-13.0901452998
-10.7560835002
-8.66454243514
-6.68364774446
-4.71902640866
-2.79525364368
-0.924350771116
3.41226849711
9.22878300954
11.991012355
10.9728747543
6.77371365114
1.02167995391
-3.81630731713
-7.06248060641
-9.44089429571
-10.1967265678
-7.1839816448
-1.11170231728
4.32404482754
7.29331640515
8.15798895342
8.31152823519
9.64204207976
12.0381165722
13.132738173
10.1298215147
0.708270011994
-12.0148234355
-19.910613026
-20.6863034951
-18.055294478
-14.775678928
-11.911834767
-9.57098170285
-7.39106013531
-5.19809211572
-3.06237744141
-1.00961583277
4.49371060257
12.2626796503
15.8397789464
14.3409108046
8.61927146009
0.776102568706
-5.21194027441
-8.74461295644
-11.8852872315
-13.6662887552
-9.79814178985
-1.07995212309
6.10795719056
9.34786406332
9.57766750075
8.84456361003
10.4941123379
14.535431282
17.3391209378
14.9360032788
2.4967498481
-15.9171201818
-26.1822227164
-25.3905606523
-20.8421417885
-16.3571138026
-12.9367221454
-10.4371101344
-8.10165918061
-5.66281091857
-3.30871314226
-1.08644517816
5.87986662777
16.3446769425
20.9577072475
18.7648967901
10.9954732129
0.0670280306224
-7.22112415597
-10.5244349034
-14.669262367
-18.5477649566
-13.6243815067
-0.665127845767
8.87944263017
12.1555628161
11.2387322786
8.78261734824
10.7489378443
17.3428545819
22.8478816975
22.2518273185
5.77937498783
-21.8562477385
-35.2177524971
-31.0337902952
-23.6129638333
-17.6722269382
-13.7312967182
-11.2621239935
-8.83801542539
-6.10630052895
-3.52204532269
-1.15087192773
7.58985854093
21.8897682661
27.7772821336
24.5833108802
14.1617118499
-1.55182123667
-10.2262139678
-12.0935554894
-17.5194699028
-25.6293256389
-19.4591382653
0.603901316931
13.2186505364
16.0121629199
13.2853151442
7.61578007599
9.84760206706
20.423250788
29.8826427714
33.5374086773
11.8533178967
-31.3635358435
-48.6393819496
-37.4860168636
-26.0135837805
-18.4872211451
-14.1578129411
-12.0758003602
-9.65115194845
-6.51287741722
-3.68209474281
-1.19789548791
9.51990882892
29.5381221942
36.8674285853
32.2089177849
18.6512311648
-4.93014772414
-14.9327549618
-12.7727038102
-19.6983350263
-36.2805002149
-28.7666435366
3.73556032208
20.0138077739
21.2495469872
16.0682953446
4.47434879266
6.86107782891
23.7835009346
38.369333839
51.1584001048
23.3110020034
-47.3557035851
-69.1680573093
-44.017796066
-27.4275093956
-18.5028078006
-14.0223602945
-12.9750665359
-10.6425299983
-6.84252768932
-3.75556022516
-1.2228090729
11.2054632034
40.3588813781
48.9547481886
42.059614532
25.6469864705
-11.7028476481
-22.6796394441
-11.1800963197
-19.4627035188
-52.9552741701
-44.32075928
10.9237796133
30.570250487
28.0918959582
20.4552008149
-2.16147842202
0.241427674162
27.728719852
47.3060229519
78.9392344829
45.474090931
-75.5610632199
-101.437116147
-48.4093719063
-26.9248800408
-17.4071701101
-13.0284970408
-14.1955754411
-12.0005505859
-6.99384404313
-3.69066469851
-1.22602457075
)
;

boundaryField
{
    left
    {
        type            calculated;
        value           uniform 0;
    }
    right
    {
        type            calculated;
        value           uniform 0;
    }
    interface
    {
        type            calculated;
        value           nonuniform List<scalar> 
32
(
11.2054632034
40.3588813781
48.9547481886
42.059614532
25.6469864705
-11.7028476481
-22.6796394441
-11.1800963197
-19.4627035188
-52.9552741701
-44.32075928
10.9237796133
30.570250487
28.0918959582
20.4552008149
-2.16147842202
0.241427674162
27.728719852
47.3060229519
78.9392344829
45.474090931
-75.5610632199
-101.437116147
-48.4093719063
-26.9248800408
-17.4071701101
-13.0284970408
-14.1955754411
-12.0005505859
-6.99384404313
-3.69066469851
-1.22602457075
)
;
    }
    bottom
    {
        type            calculated;
        value           nonuniform List<scalar> 
32
(
0.0528458975879
0.142981550223
0.191502221033
0.185799219969
0.130063877872
0.0425673399775
-0.0514411709446
-0.127505847968
-0.166808422733
-0.158666985445
-0.103348505901
-0.0137335058895
0.0889260472078
0.184112082782
0.258616482482
0.306050574407
0.321104117516
0.294476686926
0.214669456626
0.0774045529184
-0.103675105368
-0.294873300224
-0.455112106029
-0.555706215354
-0.590362604576
-0.570184691199
-0.512632385237
-0.433219753342
-0.342464776875
-0.246429911765
-0.148275037492
-0.0494638108421
)
;
    }
    defaultFaces
    {
        type            empty;
    }
}


// ************************************************************************* //
