/*--------------------------------*- C++ -*----------------------------------*\
| =========                 |                                                 |
| \\      /  F ield         | OpenFOAM: The Open Source CFD Toolbox           |
|  \\    /   O peration     | Version:  2112                                  |
|   \\  /    A nd           | Website:  www.openfoam.com                      |
|    \\/     M anipulation  |                                                 |
\*---------------------------------------------------------------------------*/
FoamFile
{
    version     2.0;
    format      ascii;
    arch        "LSB;label=32;scalar=64";
    class       volScalarField;
    location    "1";
    object      T;
}
// * * * * * * * * * * * * * * * * * * * * * * * * * * * * * * * * * * * * * //

dimensions      [0 0 0 1 0 0 0];

internalField   nonuniform List<scalar> 
512
(
309.82418412
309.827488888
309.8331251
309.839464716
309.844745915
309.847602002
309.847413862
309.844393955
309.839451721
309.833975296
309.829543019
309.827526225
309.828697761
309.833100045
309.840223286
309.849284283
309.859373837
309.869376782
309.877802327
309.882816169
309.882659462
309.876350833
309.864238812
309.847910783
309.829508788
309.811013594
309.793872467
309.778974341
309.766796952
309.757571152
309.751396196
309.748305237
309.471731609
309.481889368
309.499205405
309.518664935
309.534850739
309.543574267
309.542957387
309.533670739
309.518497692
309.501674536
309.488035695
309.481792961
309.485297926
309.498633306
309.520199955
309.547611468
309.578160238
309.608543151
309.634279686
309.64976207
309.649538402
309.630526274
309.593794018
309.544274856
309.488574048
309.432726841
309.381081595
309.33626804
309.299678377
309.271976462
309.253443149
309.244168295
309.116755981
309.134516865
309.164767622
309.19870217
309.226841369
309.241903174
309.240691835
309.224444053
309.197983124
309.168606682
309.144710742
309.133656755
309.139477339
309.162148868
309.198758972
309.245201625
309.297039342
309.348926447
309.39337994
309.42069729
309.421180516
309.389200392
309.326616552
309.242256207
309.147748955
309.053463255
308.966657487
308.891581266
308.830413827
308.784166374
308.753251923
308.737788515
308.757367319
308.784049355
308.829438461
308.880219166
308.922135177
308.944336214
308.942224416
308.917812232
308.878242307
308.834216878
308.798227393
308.781358305
308.789505161
308.822246404
308.874932318
308.941521813
309.015991563
309.091260386
309.156863281
309.198445895
309.201048643
309.15563979
309.065000813
308.942893862
308.806990154
308.672452459
308.549425394
308.443543201
308.357545649
308.292650461
308.249324855
308.227669107
308.391345986
308.428943258
308.492802698
308.563995457
308.622405003
308.652897615
308.649386531
308.615027931
308.559677954
308.497885176
308.447036396
308.422884352
308.43346953
308.477450653
308.547730965
308.635982076
308.734863583
308.836139826
308.926490282
308.98608621
308.993073782
308.933546482
308.811416391
308.647147662
308.466059707
308.288735456
308.128080599
307.990709648
307.879578081
307.795919739
307.740157213
307.712312108
308.015973571
308.067320241
308.154386445
308.25102275
308.329714582
308.370024334
308.364330225
308.317565877
308.24280435
308.158903176
308.089263659
308.05582629
308.069193717
308.126198954
308.216166627
308.327926007
308.453290388
308.583916348
308.703983874
308.787067106
308.801925597
308.727308875
308.56857744
308.355820353
308.12440593
307.901070773
307.701136933
307.531541059
307.394967603
307.292442255
307.224236615
307.190220179
307.627822788
307.696826068
307.813641745
307.942603297
308.046693254
308.098730562
308.089626295
308.0271937
307.928312953
307.816459817
307.722552495
307.677188594
307.694140602
307.766851164
307.879312386
308.016640896
308.170588968
308.33453462
308.490940827
308.605334498
308.633388248
308.542350391
308.339502232
308.069418676
307.780997544
307.507823462
307.266879277
307.06439046
306.902119249
306.780661241
306.700044441
306.659900623
307.222489086
307.314447219
307.469935505
307.640480614
307.776771548
307.842814819
307.828354287
307.746040253
307.617179063
307.469652241
307.34383699
307.283114551
307.305303091
307.397735638
307.536427506
307.701403957
307.885608893
308.087276423
308.288657732
308.445459421
308.4949106
308.385641158
308.127540216
307.787910468
307.434090587
307.106834662
306.823326995
306.587507993
306.399390518
306.258995575
306.166059384
306.119872176
306.794242735
306.916263447
307.122550413
307.347011857
307.524510986
307.607131768
307.584160476
307.476646393
307.310843034
307.117557053
306.948998961
306.868476168
306.899082738
307.017250454
307.187185725
307.381593833
307.596517432
307.840365124
308.097816357
308.312737599
308.396445883
308.266484185
307.936312717
307.510307593
307.080904659
306.695273703
306.368221244
306.099072327
305.885103417
305.725840727
305.620762942
305.56867514
306.335576314
306.497099301
306.770717038
307.065385376
307.296081936
307.397967686
307.361232178
307.221963722
307.011526039
306.759438005
306.532321614
306.426239203
306.471172963
306.624043662
306.832067919
307.056919684
307.300482678
307.590365065
307.917944876
308.213178851
308.35177893
308.19777366
307.769445097
307.233961525
306.71718742
306.269482564
305.899058548
305.597264407
305.357562224
305.179565879
305.062646351
305.004885702
305.836621574
306.050005509
306.413725862
306.799864726
307.099980183
307.223594195
307.164081916
306.985228105
306.722786594
306.395251488
306.085573438
305.946451537
306.016502029
306.217293616
306.473013039
306.727863271
306.993189009
307.331289341
307.746538169
308.153183705
308.380692432
308.198089308
307.629817669
306.953394869
306.336664196
305.824835094
305.41320747
305.080407136
304.815067671
304.618499121
304.49021915
304.427136181
305.284419538
305.565428692
306.05124385
306.555973931
306.948141056
307.095151886
306.996926738
306.769559582
306.450501434
306.026792567
305.596390915
305.41459243
305.529390093
305.79708105
306.114472218
306.396513486
306.668055133
307.05331094
307.577701217
308.138423874
308.512612778
308.29531963
307.517729548
306.658409839
305.93042497
305.355649346
304.908167342
304.547208214
304.25590352
304.040887703
303.902022445
303.834144729
304.662068887
305.029757571
305.684155064
306.340358827
306.85774102
307.028182362
306.862231543
306.576998938
306.204575073
305.66021408
305.045277907
304.808822771
305.004318879
305.364736293
305.765091835
306.068142916
306.314877682
306.740968
307.40023987
308.17079501
308.79293346
308.533174237
307.426625407
306.331141928
305.486438544
304.855199031
304.382061141
303.99716753
303.678239173
303.444814689
303.296657349
303.224760143
303.947903118
304.422521424
305.316743787
306.15959452
306.854239322
307.045488859
306.757546131
306.40643636
306.001844501
305.311501608
304.399779397
304.095319557
304.438300026
304.922722407
305.440386617
305.754233867
305.917277226
306.370782894
307.195455706
308.240815244
309.294313149
308.983330985
307.333358154
305.941777411
304.989686891
304.315829391
303.834505994
303.431255862
303.079820285
302.828049374
302.672854446
302.598027261
303.1151911
303.710499757
304.962310557
306.016036809
306.976763746
307.182786626
306.668856978
306.24946057
305.870780232
305.018371988
303.602713182
303.220225255
303.837221858
304.472735444
305.167011773
305.478437278
305.447507888
305.908293597
306.936037587
308.309394852
310.137461133
309.768902571
307.176150484
305.443190876
304.424027151
303.728982042
303.268095796
302.85306278
302.45715909
302.187815382
302.029638791
301.953268993
302.133758837
302.83446869
304.657539493
305.895894191
307.288157965
307.500283136
306.556752249
306.082535273
305.858393579
304.866309077
302.547610124
302.095537238
303.231833026
304.008417315
304.989753844
305.288670307
304.855282877
305.304580909
306.590790063
308.264938125
311.530488171
311.111264247
306.804697204
304.766843657
303.778031187
303.084297024
302.690935742
302.270810517
301.803580513
301.520510497
301.366699149
301.290152476
)
;

boundaryField
{
    left
    {
        type            zeroGradient;
    }
    right
    {
        type            zeroGradient;
    }
    interface
    {
        type            fixedGradient;
        gradient        nonuniform List<scalar> 
32
(
-74.0164409909
-74.0164409909
-10.1405880285
-10.1405880285
38.8249609559
38.8249609559
-14.6689376274
-14.6689376274
11.5111508336
11.5111508336
-97.3758803484
-97.3758803484
-32.9681320598
-32.9681320598
-0.398070849214
-0.398070849214
-51.99354107
-51.99354107
-28.2639642057
-28.2639642057
148.161645028
148.161645028
-60.0244381111
-60.0244381111
-46.0180497326
-46.0180497326
-36.4610159743
-36.4610159743
-44.7263274558
-44.7263274558
-43.6144125308
-43.6144125308
)
;
    }
    bottom
    {
        type            fixedValue;
        value           uniform 310;
    }
    defaultFaces
    {
        type            empty;
    }
}


// ************************************************************************* //
