/*--------------------------------*- C++ -*----------------------------------*\
| =========                 |                                                 |
| \\      /  F ield         | OpenFOAM: The Open Source CFD Toolbox           |
|  \\    /   O peration     | Version:  2112                                  |
|   \\  /    A nd           | Website:  www.openfoam.com                      |
|    \\/     M anipulation  |                                                 |
\*---------------------------------------------------------------------------*/
FoamFile
{
    version     2.0;
    format      ascii;
    arch        "LSB;label=32;scalar=64";
    class       volScalarField;
    location    "0.2";
    object      p;
}
// * * * * * * * * * * * * * * * * * * * * * * * * * * * * * * * * * * * * * //

dimensions      [0 2 -2 0 0 0 0];

internalField   nonuniform List<scalar> 
1681
(
100320.418102
100298.673323
100293.407808
100284.851835
100277.754329
100269.992507
100262.489341
100254.846699
100247.259153
100239.642797
100232.039011
100224.42922
100216.822283
100209.214054
100201.606457
100193.998574
100186.390829
100178.783021
100171.175242
100163.567449
100155.959663
100148.351874
100140.744086
100133.136297
100125.528509
100117.92072
100110.312932
100102.705143
100095.097355
100087.489567
100079.881778
100072.27399
100064.666201
100057.058413
100049.450625
100041.842836
100034.235048
100026.627259
100019.019471
100011.411683
100003.803894
100318.633365
100298.959396
100293.536589
100284.874496
100277.762599
100269.992064
100262.489201
100254.84613
100247.259026
100239.642685
100232.039003
100224.429207
100216.822287
100209.214053
100201.606458
100193.998574
100186.39083
100178.783021
100171.175242
100163.567449
100155.959663
100148.351874
100140.744086
100133.136297
100125.528509
100117.92072
100110.312932
100102.705143
100095.097355
100087.489567
100079.881778
100072.27399
100064.666201
100057.058413
100049.450625
100041.842836
100034.235048
100026.627259
100019.019471
100011.411683
100003.803894
100317.080257
100299.116901
100293.635841
100284.888579
100277.773854
100269.991033
100262.489967
100254.845437
100247.259076
100239.642528
100232.039024
100224.429181
100216.822296
100209.214049
100201.606461
100193.998573
100186.39083
100178.78302
100171.175242
100163.567449
100155.959663
100148.351874
100140.744086
100133.136297
100125.528509
100117.92072
100110.312932
100102.705143
100095.097355
100087.489567
100079.881778
100072.27399
100064.666201
100057.058413
100049.450625
100041.842836
100034.235048
100026.627259
100019.019471
100011.411683
100003.803894
100315.846514
100299.195649
100293.684901
100284.899362
100277.783902
100269.9907
100262.491047
100254.844937
100247.259186
100239.642391
100232.039048
100224.429155
100216.822304
100209.214044
100201.606463
100193.998572
100186.390831
100178.78302
100171.175242
100163.567449
100155.959663
100148.351873
100140.744086
100133.136297
100125.528509
100117.92072
100110.312932
100102.705143
100095.097355
100087.489567
100079.881778
100072.27399
100064.666201
100057.058413
100049.450625
100041.842836
100034.235048
100026.627259
100019.019471
100011.411683
100003.803894
100314.790031
100299.244704
100293.703732
100284.910423
100277.792705
100269.991178
100262.49221
100254.844619
100247.259307
100239.642279
100232.039068
100224.429131
100216.82231
100209.21404
100201.606465
100193.998572
100186.390831
100178.78302
100171.175242
100163.567449
100155.959663
100148.351873
100140.744086
100133.136297
100125.528509
100117.92072
100110.312932
100102.705143
100095.097355
100087.489567
100079.881778
100072.27399
100064.666201
100057.058413
100049.450625
100041.842836
100034.235048
100026.627259
100019.019471
100011.411683
100003.803894
100313.862365
100299.275193
100293.705952
100284.922077
100277.800678
100269.992273
100262.493442
100254.844432
100247.259437
100239.642183
100232.039086
100224.429109
100216.822315
100209.214036
100201.606467
100193.998571
100186.390832
100178.78302
100171.175242
100163.567449
100155.959663
100148.351873
100140.744086
100133.136297
100125.528509
100117.92072
100110.312932
100102.705143
100095.097355
100087.489567
100079.881778
100072.27399
100064.666201
100057.058413
100049.450625
100041.842836
100034.235048
100026.627259
100019.019471
100011.411683
100003.803894
100313.054735
100299.289749
100293.697574
100284.934034
100277.80802
100269.993858
100262.49474
100254.844349
100247.259576
100239.6421
100232.039101
100224.429087
100216.822319
100209.214032
100201.606468
100193.99857
100186.390832
100178.78302
100171.175243
100163.567449
100155.959663
100148.351873
100140.744086
100133.136297
100125.528509
100117.92072
100110.312932
100102.705143
100095.097355
100087.489567
100079.881778
100072.27399
100064.666201
100057.058413
100049.450625
100041.842836
100034.235048
100026.627259
100019.019471
100011.411683
100003.803894
100312.357151
100299.29172
100293.6823
100284.946142
100277.814835
100269.995851
100262.496086
100254.844357
100247.259723
100239.642028
100232.039115
100224.429066
100216.822322
100209.214028
100201.606469
100193.998569
100186.390832
100178.78302
100171.175243
100163.567449
100155.959663
100148.351873
100140.744086
100133.136297
100125.528509
100117.92072
100110.312932
100102.705143
100095.097355
100087.489567
100079.881778
100072.27399
100064.666201
100057.058413
100049.450625
100041.842836
100034.235048
100026.627259
100019.019471
100011.411683
100003.803894
100311.756683
100299.284473
100293.662994
100284.958281
100277.821203
100269.998174
100262.497458
100254.844439
100247.259873
100239.641966
100232.039127
100224.429046
100216.822325
100209.214024
100201.60647
100193.998569
100186.390833
100178.783019
100171.175243
100163.567449
100155.959663
100148.351873
100140.744086
100133.136297
100125.528509
100117.92072
100110.312932
100102.705143
100095.097355
100087.489567
100079.881778
100072.27399
100064.666201
100057.058413
100049.450625
100041.842836
100034.235048
100026.627259
100019.019471
100011.411683
100003.803894
100311.24126
100299.270699
100293.64175
100284.970286
100277.827175
100270.00074
100262.498833
100254.844583
100247.260024
100239.641913
100232.039137
100224.429027
100216.822326
100209.21402
100201.606471
100193.998568
100186.390833
100178.783019
100171.175243
100163.567449
100155.959663
100148.351873
100140.744086
100133.136297
100125.528509
100117.92072
100110.312932
100102.705143
100095.097355
100087.489567
100079.881778
100072.27399
100064.666201
100057.058413
100049.450625
100041.842836
100034.235048
100026.627259
100019.019471
100011.411683
100003.803894
100310.800515
100299.252526
100293.620008
100284.981964
100277.832772
100270.00346
100262.50019
100254.844773
100247.260172
100239.641867
100232.039145
100224.429009
100216.822328
100209.214017
100201.606472
100193.998568
100186.390833
100178.783019
100171.175243
100163.567449
100155.959663
100148.351873
100140.744086
100133.136297
100125.528509
100117.92072
100110.312932
100102.705143
100095.097355
100087.489567
100079.881778
100072.27399
100064.666201
100057.058413
100049.450625
100041.842836
100034.235048
100026.627259
100019.019471
100011.411683
100003.803894
100310.425507
100299.231711
100293.598764
100284.993119
100277.83799
100270.006247
100262.501507
100254.844997
100247.260315
100239.641829
100232.039152
100224.428992
100216.822328
100209.214013
100201.606472
100193.998567
100186.390833
100178.783019
100171.175243
100163.567449
100155.959663
100148.351873
100140.744086
100133.136297
100125.528509
100117.92072
100110.312932
100102.705143
100095.097355
100087.489567
100079.881778
100072.27399
100064.666201
100057.058413
100049.450625
100041.842836
100034.235048
100026.627259
100019.019471
100011.411683
100003.803894
100310.108507
100299.209723
100293.578707
100285.003567
100277.842807
100270.009012
100262.502762
100254.845239
100247.26045
100239.641796
100232.039157
100224.428977
100216.822329
100209.21401
100201.606473
100193.998567
100186.390834
100178.783019
100171.175243
100163.567449
100155.959663
100148.351873
100140.744086
100133.136297
100125.528509
100117.92072
100110.312932
100102.705143
100095.097355
100087.489567
100079.881778
100072.27399
100064.666201
100057.058413
100049.450625
100041.842836
100034.235048
100026.627259
100019.019471
100011.411683
100003.803894
100309.842903
100299.187787
100293.560319
100285.013143
100277.84719
100270.011672
100262.503932
100254.845488
100247.260576
100239.641769
100232.039161
100224.428962
100216.822329
100209.214007
100201.606473
100193.998566
100186.390834
100178.783019
100171.175243
100163.567449
100155.959663
100148.351873
100140.744086
100133.136297
100125.528509
100117.92072
100110.312932
100102.705143
100095.097355
100087.489567
100079.881778
100072.27399
100064.666201
100057.058413
100049.450625
100041.842836
100034.235048
100026.627259
100019.019471
100011.411683
100003.803894
100309.623113
100299.166922
100293.543936
100285.021704
100277.851099
100270.014148
100262.504996
100254.845732
100247.26069
100239.641747
100232.039164
100224.42895
100216.822328
100209.214004
100201.606473
100193.998566
100186.390834
100178.783019
100171.175243
100163.567449
100155.959663
100148.351873
100140.744086
100133.136297
100125.528509
100117.92072
100110.312932
100102.705143
100095.097355
100087.489567
100079.881778
100072.27399
100064.666201
100057.058413
100049.450625
100041.842836
100034.235048
100026.627259
100019.019471
100011.411683
100003.803894
100309.444495
100299.147964
100293.529794
100285.029132
100277.854493
100270.016371
100262.505934
100254.845958
100247.26079
100239.641729
100232.039167
100224.428939
100216.822328
100209.214002
100201.606474
100193.998565
100186.390834
100178.783019
100171.175243
100163.567449
100155.959663
100148.351873
100140.744086
100133.136297
100125.528509
100117.92072
100110.312932
100102.705143
100095.097355
100087.489567
100079.881778
100072.27399
100064.666201
100057.058413
100049.450625
100041.842836
100034.235048
100026.627259
100019.019471
100011.411683
100003.803894
100309.303262
100299.131592
100293.518053
100285.03533
100277.857332
100270.018278
100262.506728
100254.846158
100247.260875
100239.641715
100232.039168
100224.42893
100216.822328
100209.214
100201.606474
100193.998565
100186.390834
100178.783019
100171.175243
100163.567449
100155.959663
100148.351873
100140.744086
100133.136297
100125.528509
100117.92072
100110.312932
100102.705143
100095.097355
100087.489567
100079.881778
100072.27399
100064.666201
100057.058413
100049.450625
100041.842836
100034.235048
100026.627259
100019.019471
100011.411683
100003.803894
100309.196419
100299.118337
100293.508828
100285.040224
100277.85958
100270.019816
100262.507362
100254.846323
100247.260942
100239.641705
100232.039169
100224.428922
100216.822327
100209.213999
100201.606474
100193.998565
100186.390834
100178.783019
100171.175243
100163.567449
100155.959663
100148.351873
100140.744086
100133.136297
100125.528509
100117.92072
100110.312932
100102.705143
100095.097355
100087.489567
100079.881778
100072.27399
100064.666201
100057.058413
100049.450625
100041.842836
100034.235048
100026.627259
100019.019471
100011.411683
100003.803894
100309.121695
100299.108602
100293.502194
100285.043759
100277.861208
100270.020946
100262.507825
100254.846445
100247.260991
100239.641698
100232.03917
100224.428917
100216.822327
100209.213998
100201.606474
100193.998565
100186.390834
100178.783019
100171.175243
100163.567449
100155.959663
100148.351873
100140.744086
100133.136297
100125.528509
100117.92072
100110.312932
100102.705143
100095.097355
100087.489567
100079.881778
100072.27399
100064.666201
100057.058413
100049.450625
100041.842836
100034.235048
100026.627259
100019.019471
100011.411683
100003.803894
100309.077501
100299.102667
100293.498198
100285.045895
100277.862194
100270.021635
100262.508106
100254.846521
100247.261021
100239.641693
100232.03917
100224.428914
100216.822327
100209.213997
100201.606474
100193.998565
100186.390834
100178.783019
100171.175243
100163.567449
100155.959663
100148.351873
100140.744086
100133.136297
100125.528509
100117.92072
100110.312932
100102.705143
100095.097355
100087.489567
100079.881778
100072.27399
100064.666201
100057.058413
100049.450625
100041.842836
100034.235048
100026.627259
100019.019471
100011.411683
100003.803894
100309.062878
100299.100676
100293.496865
100285.04661
100277.862524
100270.021867
100262.5082
100254.846547
100247.261031
100239.641692
100232.03917
100224.428913
100216.822327
100209.213997
100201.606474
100193.998565
100186.390834
100178.783019
100171.175243
100163.567449
100155.959663
100148.351873
100140.744086
100133.136297
100125.528509
100117.92072
100110.312932
100102.705143
100095.097355
100087.489567
100079.881778
100072.27399
100064.666201
100057.058413
100049.450625
100041.842836
100034.235048
100026.627259
100019.019471
100011.411683
100003.803894
100309.077501
100299.102667
100293.498198
100285.045895
100277.862194
100270.021635
100262.508106
100254.846521
100247.261021
100239.641693
100232.03917
100224.428914
100216.822327
100209.213997
100201.606474
100193.998565
100186.390834
100178.783019
100171.175243
100163.567449
100155.959663
100148.351873
100140.744086
100133.136297
100125.528509
100117.92072
100110.312932
100102.705143
100095.097355
100087.489567
100079.881778
100072.27399
100064.666201
100057.058413
100049.450625
100041.842836
100034.235048
100026.627259
100019.019471
100011.411683
100003.803894
100309.121695
100299.108602
100293.502194
100285.043759
100277.861208
100270.020946
100262.507824
100254.846445
100247.260991
100239.641698
100232.03917
100224.428917
100216.822327
100209.213998
100201.606474
100193.998565
100186.390834
100178.783019
100171.175243
100163.567449
100155.959663
100148.351873
100140.744086
100133.136297
100125.528509
100117.92072
100110.312932
100102.705143
100095.097355
100087.489567
100079.881778
100072.27399
100064.666201
100057.058413
100049.450625
100041.842836
100034.235048
100026.627259
100019.019471
100011.411683
100003.803894
100309.196419
100299.118337
100293.508828
100285.040224
100277.85958
100270.019816
100262.507362
100254.846323
100247.260942
100239.641705
100232.039169
100224.428922
100216.822327
100209.213999
100201.606474
100193.998565
100186.390834
100178.783019
100171.175243
100163.567449
100155.959663
100148.351873
100140.744086
100133.136297
100125.528509
100117.92072
100110.312932
100102.705143
100095.097355
100087.489567
100079.881778
100072.27399
100064.666201
100057.058413
100049.450625
100041.842836
100034.235048
100026.627259
100019.019471
100011.411683
100003.803894
100309.303263
100299.131592
100293.518053
100285.03533
100277.857332
100270.018278
100262.506728
100254.846158
100247.260875
100239.641715
100232.039168
100224.42893
100216.822328
100209.214
100201.606474
100193.998565
100186.390834
100178.783019
100171.175243
100163.567449
100155.959663
100148.351873
100140.744086
100133.136297
100125.528509
100117.92072
100110.312932
100102.705143
100095.097355
100087.489567
100079.881778
100072.27399
100064.666201
100057.058413
100049.450625
100041.842836
100034.235048
100026.627259
100019.019471
100011.411683
100003.803894
100309.444496
100299.147964
100293.529793
100285.029132
100277.854493
100270.016371
100262.505934
100254.845958
100247.26079
100239.641729
100232.039167
100224.428939
100216.822328
100209.214002
100201.606474
100193.998565
100186.390834
100178.783019
100171.175243
100163.567449
100155.959663
100148.351873
100140.744086
100133.136297
100125.528509
100117.92072
100110.312932
100102.705143
100095.097355
100087.489567
100079.881778
100072.27399
100064.666201
100057.058413
100049.450625
100041.842836
100034.235048
100026.627259
100019.019471
100011.411683
100003.803894
100309.623115
100299.166921
100293.543936
100285.021704
100277.851099
100270.014148
100262.504996
100254.845732
100247.26069
100239.641747
100232.039164
100224.42895
100216.822328
100209.214004
100201.606473
100193.998566
100186.390834
100178.783019
100171.175243
100163.567449
100155.959663
100148.351873
100140.744086
100133.136297
100125.528509
100117.92072
100110.312932
100102.705143
100095.097355
100087.489567
100079.881778
100072.27399
100064.666201
100057.058413
100049.450625
100041.842836
100034.235048
100026.627259
100019.019471
100011.411683
100003.803894
100309.842905
100299.187786
100293.560318
100285.013143
100277.84719
100270.011672
100262.503932
100254.845488
100247.260576
100239.641769
100232.039161
100224.428962
100216.822329
100209.214007
100201.606473
100193.998566
100186.390834
100178.783019
100171.175243
100163.567449
100155.959663
100148.351873
100140.744086
100133.136297
100125.528509
100117.92072
100110.312932
100102.705143
100095.097355
100087.489567
100079.881778
100072.27399
100064.666201
100057.058413
100049.450625
100041.842836
100034.235048
100026.627259
100019.019471
100011.411683
100003.803894
100310.108508
100299.209722
100293.578706
100285.003567
100277.842807
100270.009012
100262.502762
100254.845239
100247.26045
100239.641796
100232.039157
100224.428977
100216.822329
100209.21401
100201.606473
100193.998567
100186.390834
100178.783019
100171.175243
100163.567449
100155.959663
100148.351873
100140.744086
100133.136297
100125.528509
100117.92072
100110.312932
100102.705143
100095.097355
100087.489567
100079.881778
100072.27399
100064.666201
100057.058413
100049.450625
100041.842836
100034.235048
100026.627259
100019.019471
100011.411683
100003.803894
100310.425508
100299.231711
100293.598764
100284.993119
100277.83799
100270.006247
100262.501507
100254.844997
100247.260315
100239.641829
100232.039152
100224.428992
100216.822328
100209.214013
100201.606472
100193.998567
100186.390833
100178.783019
100171.175243
100163.567449
100155.959663
100148.351873
100140.744086
100133.136297
100125.528509
100117.92072
100110.312932
100102.705143
100095.097355
100087.489567
100079.881778
100072.27399
100064.666201
100057.058413
100049.450625
100041.842836
100034.235048
100026.627259
100019.019471
100011.411683
100003.803894
100310.800517
100299.252526
100293.620008
100284.981964
100277.832772
100270.00346
100262.50019
100254.844773
100247.260172
100239.641867
100232.039145
100224.429009
100216.822328
100209.214017
100201.606472
100193.998568
100186.390833
100178.783019
100171.175243
100163.567449
100155.959663
100148.351873
100140.744086
100133.136297
100125.528509
100117.92072
100110.312932
100102.705143
100095.097355
100087.489567
100079.881778
100072.27399
100064.666201
100057.058413
100049.450625
100041.842836
100034.235048
100026.627259
100019.019471
100011.411683
100003.803894
100311.241262
100299.270698
100293.641749
100284.970286
100277.827175
100270.00074
100262.498833
100254.844583
100247.260024
100239.641913
100232.039137
100224.429027
100216.822326
100209.21402
100201.606471
100193.998568
100186.390833
100178.783019
100171.175243
100163.567449
100155.959663
100148.351873
100140.744086
100133.136297
100125.528509
100117.92072
100110.312932
100102.705143
100095.097355
100087.489567
100079.881778
100072.27399
100064.666201
100057.058413
100049.450625
100041.842836
100034.235048
100026.627259
100019.019471
100011.411683
100003.803894
100311.756685
100299.284472
100293.662994
100284.958281
100277.821203
100269.998174
100262.497458
100254.844439
100247.259873
100239.641966
100232.039127
100224.429046
100216.822325
100209.214024
100201.60647
100193.998569
100186.390833
100178.783019
100171.175243
100163.567449
100155.959663
100148.351873
100140.744086
100133.136297
100125.528509
100117.92072
100110.312932
100102.705143
100095.097355
100087.489567
100079.881778
100072.27399
100064.666201
100057.058413
100049.450625
100041.842836
100034.235048
100026.627259
100019.019471
100011.411683
100003.803894
100312.357153
100299.291719
100293.6823
100284.946142
100277.814835
100269.995851
100262.496086
100254.844357
100247.259723
100239.642028
100232.039115
100224.429066
100216.822322
100209.214028
100201.606469
100193.998569
100186.390832
100178.78302
100171.175243
100163.567449
100155.959663
100148.351873
100140.744086
100133.136297
100125.528509
100117.92072
100110.312932
100102.705143
100095.097355
100087.489567
100079.881778
100072.27399
100064.666201
100057.058413
100049.450625
100041.842836
100034.235048
100026.627259
100019.019471
100011.411683
100003.803894
100313.054736
100299.289748
100293.697574
100284.934034
100277.80802
100269.993858
100262.49474
100254.844349
100247.259576
100239.6421
100232.039101
100224.429087
100216.822319
100209.214032
100201.606468
100193.99857
100186.390832
100178.78302
100171.175243
100163.567449
100155.959663
100148.351873
100140.744086
100133.136297
100125.528509
100117.92072
100110.312932
100102.705143
100095.097355
100087.489567
100079.881778
100072.27399
100064.666201
100057.058413
100049.450625
100041.842836
100034.235048
100026.627259
100019.019471
100011.411683
100003.803894
100313.862367
100299.275192
100293.705952
100284.922077
100277.800678
100269.992273
100262.493442
100254.844432
100247.259437
100239.642183
100232.039086
100224.429109
100216.822315
100209.214036
100201.606467
100193.998571
100186.390832
100178.78302
100171.175242
100163.567449
100155.959663
100148.351873
100140.744086
100133.136297
100125.528509
100117.92072
100110.312932
100102.705143
100095.097355
100087.489567
100079.881778
100072.27399
100064.666201
100057.058413
100049.450625
100041.842836
100034.235048
100026.627259
100019.019471
100011.411683
100003.803894
100314.790032
100299.244703
100293.703733
100284.910424
100277.792705
100269.991178
100262.49221
100254.844619
100247.259307
100239.642279
100232.039068
100224.429131
100216.82231
100209.21404
100201.606465
100193.998572
100186.390831
100178.78302
100171.175242
100163.567449
100155.959663
100148.351873
100140.744086
100133.136297
100125.528509
100117.92072
100110.312932
100102.705143
100095.097355
100087.489567
100079.881778
100072.27399
100064.666201
100057.058413
100049.450625
100041.842836
100034.235048
100026.627259
100019.019471
100011.411683
100003.803894
100315.846514
100299.195648
100293.684901
100284.899362
100277.783902
100269.9907
100262.491047
100254.844937
100247.259186
100239.642391
100232.039048
100224.429155
100216.822304
100209.214044
100201.606463
100193.998572
100186.390831
100178.78302
100171.175242
100163.567449
100155.959663
100148.351873
100140.744086
100133.136297
100125.528509
100117.92072
100110.312932
100102.705143
100095.097355
100087.489567
100079.881778
100072.27399
100064.666201
100057.058413
100049.450625
100041.842836
100034.235048
100026.627259
100019.019471
100011.411683
100003.803894
100317.080258
100299.116901
100293.635842
100284.888579
100277.773854
100269.991033
100262.489967
100254.845437
100247.259076
100239.642528
100232.039024
100224.429181
100216.822296
100209.214049
100201.606461
100193.998573
100186.39083
100178.78302
100171.175242
100163.567449
100155.959663
100148.351874
100140.744086
100133.136297
100125.528509
100117.92072
100110.312932
100102.705143
100095.097355
100087.489567
100079.881778
100072.27399
100064.666201
100057.058413
100049.450625
100041.842836
100034.235048
100026.627259
100019.019471
100011.411683
100003.803894
100318.633365
100298.959395
100293.536589
100284.874496
100277.762599
100269.992064
100262.489201
100254.84613
100247.259026
100239.642685
100232.039003
100224.429207
100216.822287
100209.214053
100201.606458
100193.998574
100186.39083
100178.783021
100171.175242
100163.567449
100155.959663
100148.351874
100140.744086
100133.136297
100125.528509
100117.92072
100110.312932
100102.705143
100095.097355
100087.489567
100079.881778
100072.27399
100064.666201
100057.058413
100049.450625
100041.842836
100034.235048
100026.627259
100019.019471
100011.411683
100003.803894
100320.418102
100298.673323
100293.407808
100284.851835
100277.754329
100269.992507
100262.489341
100254.846699
100247.259153
100239.642797
100232.039011
100224.42922
100216.822283
100209.214054
100201.606457
100193.998574
100186.390829
100178.783021
100171.175242
100163.567449
100155.959663
100148.351874
100140.744086
100133.136297
100125.528509
100117.92072
100110.312932
100102.705143
100095.097355
100087.489567
100079.881778
100072.27399
100064.666201
100057.058413
100049.450625
100041.842836
100034.235048
100026.627259
100019.019471
100011.411683
100003.803894
)
;

boundaryField
{
    in
    {
        type            zeroGradient;
    }
    out
    {
        type            fixedValue;
        value           uniform 100000;
    }
    top
    {
        type            zeroGradient;
    }
    bottom
    {
        type            zeroGradient;
    }
    frontback
    {
        type            empty;
    }
}


// ************************************************************************* //
