/*--------------------------------*- C++ -*----------------------------------*\
| =========                 |                                                 |
| \\      /  F ield         | OpenFOAM: The Open Source CFD Toolbox           |
|  \\    /   O peration     | Version:  2112                                  |
|   \\  /    A nd           | Website:  www.openfoam.com                      |
|    \\/     M anipulation  |                                                 |
\*---------------------------------------------------------------------------*/
FoamFile
{
    version     2.0;
    format      ascii;
    arch        "LSB;label=32;scalar=64";
    class       surfaceScalarField;
    location    "0.2";
    object      phi;
}
// * * * * * * * * * * * * * * * * * * * * * * * * * * * * * * * * * * * * * //

dimensions      [0 3 -1 0 0 0 0];

oriented        oriented;

internalField   nonuniform List<scalar> 
3280
(
0.000302511787145
0.000917000411577
0.000201875179632
0.000100636605713
0.000190713127261
1.11620505745e-05
0.000183457487222
7.25564258612e-06
0.000184322989521
-8.65502488931e-07
0.000183689101657
6.33887036627e-07
0.000184149560759
-4.60458450279e-07
0.000184075046349
7.45147688028e-08
0.000184181527922
-1.06481746829e-07
0.000184160045595
2.14824412987e-08
0.000184179146112
-1.91002655545e-08
0.000184172195508
6.95068939466e-09
0.000184175523719
-3.32814037055e-09
0.000184173707072
1.8167882343e-09
0.000184174378629
-6.71427889041e-10
0.000184173975048
4.0367652976e-10
0.000184174131293
-1.56139790675e-10
0.000184174047796
8.3602659506e-11
0.000184174085105
-3.72106453646e-11
0.000184174067716
1.74832934668e-11
0.000184174076299
-8.49386760197e-12
0.000184174072535
3.84982569381e-12
0.000184174074445
-1.82979155569e-12
0.000184174073618
9.07347570677e-13
0.00018417407405
-3.55518881145e-13
0.000184174073879
2.42775220899e-13
0.000184174073989
-3.80288651124e-14
0.000184174073966
9.14520338076e-14
0.000184174074004
2.7419885899e-14
0.00018417407401
5.18702278757e-14
0.000184174074029
3.54263961586e-14
0.000184174074041
4.06439166463e-14
0.000184174074058
3.43373897341e-14
0.000184174074072
3.10403895591e-14
0.000184174074089
2.40353392927e-14
0.000184174074104
2.2180930607e-14
0.000184174074119
1.91298090566e-14
0.000184174074125
1.62850509146e-14
0.000184174074119
2.52825587162e-14
0.000184174074104
2.72199469696e-14
4.40828083276e-14
0.000680514171923
0.00145599843629
0.000528406825648
0.000252743953896
0.000487299792389
5.22690807234e-05
0.000473691256723
2.08641802139e-05
0.000472821048715
4.70647865796e-09
0.000472163309152
1.29162584211e-06
0.000472745711211
-1.04286007947e-06
0.000472786178143
3.40485277327e-08
0.000472942928537
-2.63232042808e-07
0.000472942669089
2.17420581252e-08
0.000472967593481
-4.40242689115e-08
0.000472962060039
1.24844202737e-08
0.000472965287277
-6.55516521559e-09
0.000472963287398
3.81693598922e-09
0.000472963807035
-1.19078975358e-09
0.00047296334476
8.66189542273e-10
0.000472963474633
-2.85787364551e-10
0.000472963385588
1.7287639495e-10
0.000472963421179
-7.25847230847e-11
0.000472963404285
3.45867994026e-11
0.000472963413084
-1.70915736301e-11
0.000472963409597
7.52859642563e-12
0.000472963411594
-3.64679951508e-12
0.000472963410843
1.83388836819e-12
0.00047296341131
-6.53059200224e-13
0.000472963411177
5.39527910351e-13
0.000472963411318
-2.50200893965e-14
0.000472963411324
2.30834540912e-13
0.00047296341139
1.03814109317e-13
0.000472963411423
1.4764867734e-13
0.000472963411466
1.13078151766e-13
0.000472963411501
1.16575268129e-13
0.000472963411541
9.69552662314e-14
0.00047296341158
8.0815398751e-14
0.000472963411622
6.30436325614e-14
0.000472963411662
5.29461751982e-14
0.000472963411697
4.60169233755e-14
0.000472963411711
4.28579256443e-14
0.000472963411697
7.02973625726e-14
0.000472963411653
8.92736643081e-14
1.29369638923e-13
0.000926701847797
0.00174880878401
0.000779201506915
0.000400244299006
0.000718735358741
0.000112735225378
0.00070214732284
3.74522172197e-05
0.000699004166663
3.14786426199e-06
0.000698516651907
1.7791400342e-06
0.000698982593928
-1.5088019657e-06
0.000699162842113
-1.46198893693e-07
0.000699320654225
-4.21043902634e-07
0.000699351626659
-9.23023353811e-09
0.000699374189297
-6.65865326671e-08
0.000699373437298
1.32367718518e-08
0.000699375162378
-8.27999526028e-09
0.000699373830842
5.1487483065e-09
0.000699373904246
-1.26390075472e-09
0.000699373565927
1.20477503159e-09
0.000699373598378
-3.17984939343e-10
0.000699373540845
2.30654559567e-10
0.00069937355762
-8.91180741966e-11
0.000699373548944
4.34851806977e-11
0.000699373554059
-2.19885644533e-11
0.000699373552539
9.25934542558e-12
0.000699373553766
-4.67661927774e-12
0.000699373553468
2.32333141719e-12
0.00069937355378
-7.83364782414e-13
0.000699373553764
7.3076768016e-13
0.000699373553888
1.90111351331e-14
0.000699373553938
3.39654766442e-13
0.000699373554017
1.7419793481e-13
0.000699373554075
2.30121436646e-13
0.000699373554134
1.82865957228e-13
0.000699373554188
1.83426596802e-13
0.000699373554247
1.54317564815e-13
0.000699373554305
1.22014027657e-13
0.000699373554367
8.75157644408e-14
0.000699373554426
6.84491407559e-14
0.000699373554475
5.61202621858e-14
0.000699373554495
6.56932940192e-14
0.000699373554475
1.20315767756e-13
0.000699373554407
1.73553832268e-13
2.29577811294e-13
0.00109320493758
0.00187511603917
0.000965358026427
0.000528091216927
0.000899455656309
0.000178637591867
0.000881195490405
5.57123830993e-05
0.000876532791107
7.81056560606e-06
0.000876031715315
2.28021557616e-06
0.000876389014316
-1.86610116706e-06
0.000876642068868
-3.99252742589e-07
0.000876799265343
-5.78239983447e-07
0.000876849534275
-5.94990642067e-08
0.000876871288382
-8.83403323203e-08
0.000876873719615
1.08059000968e-08
0.000876874675765
-9.23589234425e-09
0.000876873786904
6.03785469943e-09
0.000876873602855
-1.07956854181e-09
0.000876873339357
1.46853563927e-09
0.000876873312373
-2.90765901762e-10
0.000876873272916
2.70348376154e-10
0.000876873278023
-9.39966749498e-11
0.000876873274125
4.7599245953e-11
0.000876873276992
-2.46522505831e-11
0.000876873276648
9.80062075161e-12
0.000876873277421
-5.25694187127e-12
0.000876873277401
2.52672872005e-12
0.000876873277628
-8.28538296985e-13
0.000876873277688
8.37243840703e-13
0.000876873277807
6.60487335151e-14
0.000876873277888
4.09381986176e-13
0.000876873277978
2.26232957228e-13
0.000876873278055
2.88143050192e-13
0.000876873278129
2.30731616745e-13
0.000876873278198
2.30338103645e-13
0.00087687327827
1.90310316171e-13
0.000876873278343
1.43226059126e-13
0.00087687327842
9.51945403359e-14
0.000876873278493
6.33193536147e-14
0.000876873278553
5.74262964467e-14
0.000876873278576
8.91936619642e-14
0.000876873278551
1.74215529272e-13
0.000876873278466
2.7684726751e-13
3.4449284944e-13
0.0012038120936
0.00189081613668
0.0011024575889
0.000629445729981
0.00103977727302
0.00024131790434
0.001021329316
7.41603392861e-05
0.00101582899887
1.33108849061e-05
0.00101525178384
2.85743067345e-06
0.00101550432195
-2.11863965972e-06
0.00101578472968
-6.79659870268e-07
0.00101593598947
-7.29499283867e-07
0.00101599674025
-1.20249749425e-07
0.00101601786825
-1.09468087004e-07
0.00101602237593
6.29857885386e-09
0.00101602295114
-9.81083839283e-09
0.00101602238466
6.60456968706e-09
0.0010160220606
-7.55247104955e-10
0.00101602184959
1.67980245843e-09
0.00101602178717
-2.28119568364e-10
0.00101602175896
2.98786055384e-10
0.00101602175667
-9.14812333665e-11
0.00101602175561
4.88661147698e-11
0.00101602175703
-2.58683168918e-11
0.0010160217574
9.62581597671e-12
0.00101602175789
-5.56266444158e-12
0.00101602175804
2.55214624353e-12
0.00101602175822
-8.35534598822e-13
0.00101602175833
8.88935366053e-13
0.00101602175845
9.77469276554e-14
0.00101602175856
4.50080353112e-13
0.00101602175866
2.63081289271e-13
0.00101602175875
3.27041191874e-13
0.00101602175883
2.66166136818e-13
0.00101602175891
2.57635813421e-13
0.001016021759
2.10087710675e-13
0.00101602175908
1.46325494493e-13
0.00101602175917
8.5264681563e-14
0.00101602175925
4.90176390858e-14
0.00101602175932
4.83943318529e-14
0.00101602175935
1.07989232196e-13
0.00101602175932
2.37426971816e-13
0.00101602175922
3.91955751692e-13
4.67572448589e-13
0.00127539471038
0.00183493361574
0.00120239580753
0.000702444642413
0.00114814203443
0.000295571674589
0.00113083079568
9.14715764566e-05
0.00112508861412
1.90530685975e-05
0.00112443712429
3.50892092312e-06
0.00112459195021
-2.27346606886e-06
0.00112486789228
-9.55601467172e-07
0.00112500718349
-8.68789932017e-07
0.00112507149975
-1.84565889395e-07
0.00112509157358
-1.2954171424e-07
0.00112509729444
5.78065231862e-10
0.00112509769527
-1.02113937201e-08
0.00112509737584
6.92422390546e-09
0.00112509699055
-3.6971214752e-10
0.0011250968217
1.84890932123e-09
0.00112509674059
-1.46779664043e-10
0.00112509671998
3.19607248586e-10
0.00112509671315
-8.44339784459e-11
0.00112509671376
4.8466127506e-11
0.00112509671423
-2.61379722929e-11
0.001125096715
9.03546934078e-12
0.00112509671531
-5.68804238097e-12
0.00112509671558
2.45698670926e-12
0.00112509671573
-8.18144376379e-13
0.00112509671587
9.015287614e-13
0.001125096716
1.25587834064e-13
0.00112509671612
4.76585529034e-13
0.00112509671623
2.90795512498e-13
0.00112509671633
3.50111056844e-13
0.00112509671642
2.92721899251e-13
0.00112509671651
2.80658733037e-13
0.0011250967166
2.18310311272e-13
0.0011250967167
1.49692934528e-13
0.00112509671679
6.78585898654e-14
0.00112509671688
2.48607746184e-14
0.00112509671696
3.2836890407e-14
0.00112509671699
1.26376351678e-13
0.00112509671695
2.96318498474e-13
0.00112509671685
5.16134192895e-13
5.96011312046e-13
0.00132001062515
0.00173443517917
0.00127434211693
0.000748113160915
0.00123134861249
0.000338565176899
0.00121624094275
0.000106579244075
0.0012107505937
2.45434195399e-05
0.00121006193181
4.19758356313e-06
0.00121012915729
-2.34069202969e-06
0.00121037877276
-1.20521662187e-06
0.00121050031586
-9.90332431454e-07
0.00121056274657
-2.46996407567e-07
0.00121058104003
-1.47835019828e-07
0.00121058728105
-5.66263209338e-09
0.00121058760056
-1.05306085369e-08
0.00121058747837
7.04663338373e-09
0.00121058708469
2.42066005708e-11
0.00121058695435
1.97950772862e-09
0.00121058686641
-5.86112369835e-11
0.00121058685169
3.34534025437e-10
0.00121058684228
-7.48070844507e-11
0.00121058684385
4.71066008176e-11
0.00121058684367
-2.57658767072e-11
0.00121058684467
8.22516992398e-12
0.00121058684485
-5.69365170389e-12
0.00121058684518
2.29771064641e-12
0.00121058684531
-7.88796756115e-13
0.00121058684549
8.86442181113e-13
0.00121058684561
1.44639783714e-13
0.00121058684575
4.82706966087e-13
0.00121058684586
3.05156357673e-13
0.00121058684598
3.63588309938e-13
0.00121058684608
3.07026432336e-13
0.00121058684617
2.87681122712e-13
0.00121058684627
2.1731948953e-13
0.00121058684637
1.38049193331e-13
0.00121058684647
4.63742241246e-14
0.00121058684657
-3.98025730351e-15
0.00121058684665
1.46407424832e-14
0.00121058684667
1.39456701046e-13
0.00121058684664
3.54934397385e-13
0.00121058684653
6.39001512337e-13
7.28154527379e-13
0.00134618853607
0.00160775883022
0.00132536615491
0.00076893555251
0.00129484400625
0.000369087324266
0.00128272355254
0.000118699695327
0.00127787327926
2.93936943591e-05
0.00127720058555
4.87027830456e-06
0.00127719228508
-2.33239195671e-06
0.00127740114375
-1.4140751413e-06
0.00127749989422
-1.08908229916e-06
0.00127755619582
-3.03297766857e-07
0.00127757187523
-1.63514299083e-07
0.00127757807753
-1.18646235432e-08
0.00127757833828
-1.07910481162e-08
0.00127757837892
7.00621070322e-09
0.00127757801149
3.91867069516e-10
0.00127757791965
2.07160209263e-09
0.00127757783329
2.79777079126e-11
0.0012775778239
3.44141381741e-10
0.00127757781325
-6.39454582682e-11
0.00127757781539
4.51719123011e-11
0.00127757781476
-2.49410442882e-11
0.00127757781585
7.32141658338e-12
0.00127757781594
-5.60576189547e-12
0.0012775778163
2.10327983608e-12
0.00127757781643
-7.51165550897e-13
0.00127757781662
8.60430218784e-13
0.00127757781675
1.58379080669e-13
0.00127757781689
4.80082897826e-13
0.00127757781702
3.13653942602e-13
0.00127757781713
3.71007216936e-13
0.00127757781724
3.16762196671e-13
0.00127757781735
2.94665973163e-13
0.00127757781745
2.11581502679e-13
0.00127757781755
1.20711559483e-13
0.00127757781766
2.11534117786e-14
0.00127757781776
-4.02523467989e-14
0.00127757781784
-9.25988518871e-15
0.00127757781787
1.5249066563e-13
0.00127757781783
4.18301081187e-13
0.00127757781773
7.61598352707e-13
8.52890232408e-13
0.00135993284148
0.00146733817535
0.00136088141178
0.000767986992289
0.0013429746947
0.000386994040914
0.00133435306129
0.000127321326166
0.00133043039886
3.3316357902e-05
0.00132982973469
5.47094369001e-06
0.00132975891226
-2.2615697807e-06
0.00132991806719
-1.57323004044e-06
0.0013299900014
-1.16101594679e-06
0.00133003694192
-3.50237965753e-07
0.00133004920111
-1.75773348938e-07
0.00133005491532
-1.75785670398e-08
0.00133005510008
-1.09754908072e-08
0.00133005527774
6.82877944426e-09
0.00133005495868
7.11145228663e-10
0.00133005490687
2.12366032949e-09
0.00133005482806
1.07019731993e-10
0.00133005482402
3.48395988565e-10
0.00133005481308
-5.28003484485e-11
0.00133005481558
4.28743139835e-11
0.00133005481462
-2.37821857604e-11
0.00133005481572
6.39088028613e-12
0.00133005481574
-5.44671668183e-12
0.00133005481612
1.89170202647e-12
0.00133005481624
-7.07969101623e-13
0.00133005481644
8.20077388479e-13
0.00133005481658
1.66352898306e-13
0.00133005481673
4.6805816281e-13
0.00133005481686
3.13420089967e-13
0.00133005481698
3.71523314137e-13
0.0013300548171
3.2129062906e-13
0.0013300548172
2.94772478337e-13
0.00133005481731
2.03043615294e-13
0.00133005481742
1.03719499411e-13
0.00133005481753
-9.90641638027e-15
0.00133005481763
-7.59469696538e-14
0.00133005481771
-3.41260644194e-14
0.00133005481774
1.6546821391e-13
0.00133005481771
4.83649553239e-13
0.0013300548176
8.8906943439e-13
9.71208203931e-13
0.00136546588523
0.00132138447672
0.00138500770262
0.000748445184181
0.00137919228906
0.000392809454814
0.00137434205914
0.000132171553618
0.00137154271704
3.61157006597e-05
0.00137106490843
5.94875359986e-06
0.00137094454885
-2.1412102549e-06
0.0013710491142
-1.67779545344e-06
0.00137109135351
-1.2032547674e-06
0.00137112657276
-3.85456837736e-07
0.00137113471886
-1.83919307606e-07
0.00137113959073
-2.24501899839e-08
0.00137113966365
-1.10481021887e-08
0.00137113995725
6.53543104713e-09
0.00137113970001
9.68601469338e-10
0.00137113968999
2.13392337619e-09
0.0013711396229
1.7434289363e-10
0.00137113962449
3.47020325484e-10
0.00137113961393
-4.2032298779e-11
0.0013711396167
4.03017891193e-11
0.00137113961548
-2.23588491027e-11
0.00137113961656
5.49652096406e-12
0.00137113961651
-5.22155309251e-12
0.00137113961689
1.67367664094e-12
0.00137113961701
-6.62102185627e-13
0.00137113961722
7.67551724544e-13
0.00137113961736
1.73110183693e-13
0.00137113961752
4.52122995279e-13
0.00137113961765
3.11015175715e-13
0.00137113961778
3.67155881633e-13
0.0013711396179
3.18464438879e-13
0.00137113961801
2.8599646124e-13
0.00137113961812
1.9201687188e-13
0.00137113961823
8.35915898199e-14
0.00137113961834
-3.94193390793e-14
0.00137113961844
-1.09921598715e-13
0.00137113961852
-5.8252047784e-14
0.00137113961855
1.79661404567e-13
0.00137113961852
5.40577818224e-13
0.00137113961842
1.0084255179e-12
1.0914689319e-12
0.00136574923172
0.00117514743255
0.00140086607359
0.000713328350437
0.00140622473067
0.000387450798745
0.00140522086293
0.000133175419173
0.00140365964606
3.7676917772e-05
0.00140334575894
6.26264201987e-06
0.00140318804263
-1.98349380482e-06
0.00140323618133
-1.72593426982e-06
0.00140324700779
-1.21408081403e-06
0.00140326891791
-4.07366543178e-07
0.0014032724211
-1.87422321524e-07
0.00140327618369
-2.62125731546e-08
0.00140327610394
-1.0968042099e-08
0.00140327649524
6.14439124134e-09
0.00140327630711
1.15694856034e-09
0.00140327634012
2.1011445698e-09
0.00140327628754
2.27155592221e-10
0.00140327629509
3.39688357794e-10
0.00140327628538
-3.21185152303e-11
0.00140327628839
3.74920354506e-11
0.00140327628695
-2.07302901695e-11
0.00140327628798
4.65889612616e-12
0.00140327628787
-4.931505399e-12
0.00140327628825
1.46515662691e-12
0.00140327628836
-6.10872749016e-13
0.00140327628857
7.11428359677e-13
0.00140327628872
1.74572623457e-13
0.00140327628888
4.29896044342e-13
0.00140327628902
3.00376313342e-13
0.00140327628915
3.53275401047e-13
0.00140327628927
3.11620521454e-13
0.00140327628938
2.77528841477e-13
0.00140327628949
1.77527957898e-13
0.00140327628961
6.22920615838e-14
0.00140327628972
-7.37059175737e-14
0.00140327628982
-1.46029445355e-13
0.0014032762899
-8.43963169972e-14
0.00140327628993
1.88867444758e-13
0.00140327628991
5.99320169109e-13
0.00140327628981
1.12422552452e-12
1.20182120391e-12
0.00136284997151
0.00103180964895
0.00141081105581
0.000665367272847
0.00142621842091
0.00037204343516
0.00142897935361
0.000130414484688
0.00142870176552
3.79545057584e-05
0.00142858099892
6.38340980489e-06
0.00142839674621
-1.799240756e-06
0.00142838894269
-1.7181308573e-06
0.00142836775575
-1.19289354592e-06
0.00142837546432
-4.15074680874e-07
0.00142837398376
-1.85941549648e-07
0.00142837645269
-2.86813051389e-08
0.00142837618303
-1.06980868682e-08
0.00142837665584
5.6718519006e-09
0.00142837653956
1.27345695509e-09
0.00142837661597
2.02496238725e-09
0.00142837657957
2.63783631908e-10
0.00142837659331
3.2615769059e-10
0.00142837658477
-2.33724988264e-11
0.00142837658801
3.44525017952e-11
0.0014283765864
-1.89315911878e-11
0.00142837658735
3.8903678518e-12
0.00142837658718
-4.5891854236e-12
0.00142837658755
1.26582616656e-12
0.00142837658766
-5.58671144753e-13
0.00142837658788
6.50528618639e-13
0.00142837658803
1.7048792142e-13
0.00142837658819
4.04442192353e-13
0.00142837658833
2.91527168319e-13
0.00142837658847
3.39561007485e-13
0.00142837658859
3.04003474109e-13
0.00142837658871
2.65919532205e-13
0.00142837658882
1.59476762354e-13
0.00142837658894
3.57079111052e-14
0.00142837658905
-1.0877194272e-13
0.00142837658915
-1.77693750611e-13
0.00142837658923
-1.07010804103e-13
0.00142837658926
1.94966209196e-13
0.00142837658924
6.50210686034e-13
0.00142837658915
1.22948385888e-12
1.30541505037e-12
0.00135820131473
0.000893120523336
0.00141661102159
0.000606957571122
0.00144085465364
0.000347799804952
0.00144717903498
0.000124090102071
0.00144817261318
3.69609271835e-05
0.00144826174732
6.29427669566e-06
0.00144806009105
-1.59758399207e-06
0.00144799862035
-1.65666023702e-06
0.00144794586323
-1.14013618455e-06
0.00144793910768
-4.0831869722e-07
0.00144793250181
-1.7933542702e-07
0.00144793357119
-2.97505035332e-08
0.00144793308329
-1.02099056577e-08
0.00144793362315
5.13226484658e-09
0.00144793357803
1.31880593983e-09
0.00144793369713
1.9060759972e-09
0.00144793367765
2.83504034467e-10
0.00144793369767
3.06355116017e-10
0.00144793369049
-1.59852206768e-11
0.00144793369396
3.11813564234e-11
0.00144793369221
-1.69910204515e-11
0.00144793369308
3.2057571645e-12
0.00144793369285
-4.18829012113e-12
0.00144793369321
1.07643018736e-12
0.00144793369331
-4.98306467124e-13
0.00144793369353
5.82491557499e-13
0.00144793369368
1.66707547574e-13
0.00144793369385
3.72484699352e-13
0.001447933694
2.7200151028e-13
0.00144793369413
3.22764031624e-13
0.00144793369426
2.91570058297e-13
0.00144793369438
2.53019273023e-13
0.0014479336945
1.45190417049e-13
0.00144793369461
8.16598336335e-15
0.00144793369472
-1.44291400724e-13
0.00144793369482
-2.12624956901e-13
0.0014479336949
-1.32945718134e-13
0.00144793369494
2.03743342566e-13
0.00144793369492
6.98211862197e-13
0.00144793369484
1.32355047857e-12
1.4023629875e-12
0.00135278878294
0.000759843930918
0.00141958755328
0.000540158804328
0.00145144386921
0.000315943490999
0.00146104143201
0.000114492538529
0.00146324622647
3.47561322012e-05
0.00146355004618
5.99045779954e-06
0.00146333829556
-1.38583275862e-06
0.00146322683029
-1.54519496107e-06
0.00146314390008
-1.05720580277e-06
0.00146312298707
-3.87405270635e-07
0.00146311131281
-1.67660883687e-07
0.00146311095092
-2.93884298798e-08
0.0014631102283
-9.48702655362e-09
0.00146311082237
4.53847424869e-09
0.0014631108451
1.29631585473e-09
0.00146311100508
1.74631947552e-09
0.00146311100241
2.86391313301e-10
0.0014631110286
2.80383505528e-10
0.00146311102287
-1.00460990642e-11
0.00146311102658
2.76680812304e-11
0.00146311102471
-1.49363260645e-11
0.0014631110255
2.59507445991e-12
0.00146311102522
-3.73471728515e-12
0.00146311102556
9.10086277865e-13
0.00146311102566
-4.35436801396e-13
0.00146311102588
5.15899809213e-13
0.00146311102604
1.58108104195e-13
0.00146311102621
3.38112736601e-13
0.00146311102635
2.52062089582e-13
0.00146311102649
3.03678368746e-13
0.00146311102662
2.7911413912e-13
0.00146311102674
2.36103404677e-13
0.00146311102686
1.23515260714e-13
0.00146311102697
-1.66560534828e-14
0.00146311102708
-1.74827814228e-13
0.00146311102718
-2.42797891732e-13
0.00146311102726
-1.54260704293e-13
0.0014631110273
2.09669133637e-13
0.00146311102729
7.38783288252e-13
0.00146311102722
1.41200656811e-12
1.49130959988e-12
0.00134728316496
0.000632072958497
0.001420722616
0.000466719355321
0.00145900125776
0.000277664851171
0.00147151765193
0.000101976144149
0.0014748355478
3.14382357455e-05
0.00147534784974
5.47815645143e-06
0.00147513150076
-1.16948310382e-06
0.00147497481437
-1.38850848028e-06
0.00147486396296
-9.4635427775e-07
0.00147482970909
-3.53151012743e-07
0.00147481321302
-1.51164500962e-07
0.00147481145713
-2.76323444945e-08
0.00147481049649
-8.52613823882e-09
0.00147481113352
3.9017287797e-09
0.00147481121869
1.21138486684e-09
0.00147481141661
1.54860868478e-09
0.00147481142999
2.73242588252e-10
0.00147481146203
2.48559607167e-10
0.00147481145774
-5.5517257394e-12
0.00147481146169
2.39180775167e-11
0.00147481145972
-1.27812602456e-11
0.00147481146043
2.06433819054e-12
0.0014748114601
-3.23442795321e-12
0.00147481146043
7.53539505008e-13
0.00147481146052
-3.62315626082e-13
0.00147481146074
4.48819136805e-13
0.0014748114609
1.48145847545e-13
0.00147481146107
3.03090634879e-13
0.00147481146122
2.33836618906e-13
0.00147481146137
2.78912924471e-13
0.0014748114615
2.61501367648e-13
0.00147481146162
2.21720122343e-13
0.00147481146174
1.04669125585e-13
0.00147481146185
-4.30303661981e-14
0.00147481146196
-2.07479207971e-13
0.00147481146205
-2.7521286353e-13
0.00147481146213
-1.76055657521e-13
0.00147481146217
2.12296135184e-13
0.00147481146216
7.72106782607e-13
0.00147481146211
1.48809012109e-12
1.56519459353e-12
0.00134213529659
0.000509449855451
0.00142074039968
0.000388114252921
0.00146430681316
0.000234098439447
0.00147934286234
8.69400952327e-05
0.00148364565235
2.71354451782e-05
0.00148435057387
4.77323530487e-06
0.00148413342561
-9.52334145105e-07
0.00148393716247
-1.19224515335e-06
0.00148380139182
-8.10583528458e-07
0.00148375506335
-3.0682220363e-07
0.00148373416676
-1.30267574522e-07
0.0014837311169
-2.45822678185e-08
0.00148372992819
-7.33720282345e-09
0.00148373059844
3.23174417851e-09
0.001483730739
1.0710671192e-09
0.00148373097093
1.31690132769e-09
0.00148373099894
2.45455988537e-10
0.00148373103633
2.11396070167e-10
0.0014837310334
-2.41823572538e-12
0.00148373103757
1.99433362838e-11
0.00148373103552
-1.05468182292e-11
0.00148373103616
1.6068196624e-12
0.00148373103579
-2.69205241003e-12
0.0014837310361
6.15148163829e-13
0.00148373103619
-2.87508685669e-13
0.00148373103641
3.79871358613e-13
0.00148373103657
1.35074591789e-13
0.00148373103674
2.65217200192e-13
0.0014837310369
2.13589348566e-13
0.00148373103704
2.52260372355e-13
0.00148373103717
2.40461400447e-13
0.0014837310373
1.9909985005e-13
0.00148373103741
8.64290199834e-14
0.00148373103753
-7.01445372332e-14
0.00148373103763
-2.3766962858e-13
0.00148373103773
-3.05547307674e-13
0.0014837310378
-1.91630456647e-13
0.00148373103784
2.13190174923e-13
0.00148373103784
8.03494237664e-13
0.0014837310378
1.54674940026e-12
1.62524077676e-12
0.00133764346281
0.00039131858757
0.00142016929729
0.000305588418014
0.00146795250455
0.000186315233664
0.00148507865645
6.98139439782e-05
0.00149021490222
2.19991989719e-05
0.00149108840348
3.89973423445e-06
0.00149087274692
-7.36676919717e-07
0.00149064323786
-9.62735809116e-07
0.00149048619131
-6.53536884901e-07
0.00149042944168
-2.50072281699e-07
0.00149040472087
-1.05546410039e-07
0.00149040053245
-2.03936055817e-08
0.0014903991381
-5.94263737666e-09
0.00149039983331
2.53680660313e-09
0.00149040002088
8.83746730456e-10
0.00149040028195
1.05605105825e-09
0.00149040032267
2.04960616079e-10
0.0014904003647
1.69586120326e-10
0.00149040036298
-4.92722954365e-13
0.00149040036735
1.5764717675e-11
0.00149040036524
-8.24792785401e-12
0.00149040036582
1.20423370667e-12
0.00149040036541
-2.11197775616e-12
0.00149040036571
4.85902212221e-13
0.00149040036579
-2.08971706838e-13
0.00149040036601
3.09932202709e-13
0.00149040036617
1.22072480346e-13
0.00149040036635
2.26816725646e-13
0.0014904003665
1.90016518105e-13
0.00149040036665
2.24225899914e-13
0.00149040036678
2.18553419505e-13
0.00149040036691
1.81019781293e-13
0.00149040036703
6.71247730079e-14
0.00149040036714
-9.58681627138e-14
0.00149040036724
-2.64471821726e-13
0.00149040036733
-3.32345737255e-13
0.00149040036741
-2.11883365384e-13
0.00149040036745
2.12739559708e-13
0.00149040036746
8.27899316093e-13
0.00149040036742
1.59476026382e-12
1.67631056187e-12
0.00133400103816
0.000276829745517
0.00141938827161
0.000220201183304
0.00147037874652
0.00013532475989
0.00148914558362
5.10471078033e-05
0.00149494638815
1.61983941673e-05
0.00149595778566
2.88833676415e-06
0.0014957446395
-5.23530153709e-07
0.00149548874783
-7.06843770339e-07
0.00149531459827
-4.79387217871e-07
0.00149524940285
-1.84876613804e-07
0.00149522156574
-7.77089493285e-08
0.00149521644112
-1.52687243862e-08
0.00149521487456
-4.37585911079e-09
0.00149521558772
1.82391194178e-09
0.0014952158129
6.58823010996e-10
0.00149521609747
7.71698787498e-10
0.00149521614853
1.54121321676e-10
0.00149521619435
1.23985734097e-10
0.00149521619363
4.28475480386e-13
0.00149521619818
1.14152472907e-11
0.00149521619601
-5.89713582937e-12
0.00149521619654
8.53949105154e-13
0.00149521619611
-1.49678761169e-12
0.00149521619639
3.66937818034e-13
0.00149521619648
-1.27856431095e-13
0.0014952161967
2.41959888575e-13
0.00149521619686
1.03968537291e-13
0.00149521619703
1.85637990615e-13
0.00149521619719
1.62670937833e-13
0.00149521619734
2.00449771579e-13
0.00149521619747
2.00499492592e-13
0.0014952161976
1.59492346825e-13
0.00149521619771
4.88136404206e-14
0.00149521619782
-1.18249467362e-13
0.00149521619792
-2.87662782133e-13
0.00149521619801
-3.58053695799e-13
0.00149521619809
-2.27940019082e-13
0.00149521619813
2.09636899042e-13
0.00149521619814
8.4232106665e-13
0.00149521619813
1.63454262126e-12
1.71303364312e-12
0.0013313297598
0.000165012183242
0.0014186609079
0.000132870033402
0.00147190197283
8.20836957344e-05
0.00149184763844
3.1101443294e-05
0.00149813150042
9.91453209465e-06
0.00149924499646
1.77484067164e-06
0.00149903437152
-3.12904698443e-07
0.00149875935907
-4.31830901771e-07
0.00149857269442
-2.92722431194e-07
0.00149850128248
-1.13464455765e-07
0.00149847114232
-4.75684464957e-08
0.00149846532143
-9.44756241443e-09
0.00149846362512
-2.67932508005e-09
0.00149846435029
1.09899951773e-09
0.00149846460287
4.06487698211e-10
0.0014984649047
4.70105431499e-10
0.00149846496339
9.5644348526e-11
0.00149846501201
7.55847085566e-11
0.00149846501204
6.02578387498e-13
0.00149846501671
6.93926051987e-12
0.00149846501452
-3.51111423313e-12
0.00149846501501
5.3590325292e-13
0.00149846501455
-8.63382795708e-13
0.00149846501483
2.56976138784e-13
0.00149846501491
-4.57719744419e-14
0.00149846501513
1.71759307957e-13
0.00149846501529
8.65643557725e-14
0.00149846501547
1.47679870684e-13
0.00149846501563
1.41136242263e-13
0.00149846501577
1.72291834644e-13
0.00149846501591
1.73877755038e-13
0.00149846501604
1.3365744643e-13
0.00149846501615
2.70141620831e-14
0.00149846501626
-1.38955055952e-13
0.00149846501636
-3.09618110638e-13
0.00149846501645
-3.75063405039e-13
0.00149846501652
-2.43509853227e-13
0.00149846501656
2.070630877e-13
0.00149846501658
8.51164000977e-13
0.00149846501658
1.65807135114e-12
1.73710059399e-12
0.00132970236863
5.48220122464e-05
0.00141815957755
4.44128224226e-05
0.00147273469775
2.75085759747e-05
0.00149339003001
1.04461121969e-05
0.00149996697574
3.33758647098e-06
0.00150114315885
5.98657466326e-07
0.00150093433882
-1.04084258734e-07
0.00150064774477
-1.45236398535e-07
0.00150045345121
-9.8428699353e-08
0.00150037823537
-3.82484130811e-08
0.00150034668218
-1.60149346629e-08
0.0015003404324
-3.19749382457e-09
0.00150033865548
-9.02178978538e-10
0.00150033938752
3.67195629517e-10
0.00150033965678
1.37489378092e-10
0.00150033996913
1.57979659928e-10
0.00150034003251
3.24810242677e-11
0.00150034008285
2.54599896999e-11
0.00150034008334
3.17399719589e-13
0.00150034008809
2.38146947052e-12
0.00150034008588
-1.1054823939e-12
0.00150034008635
2.42481520637e-13
0.00150034008588
-2.21771917855e-13
0.00150034008615
1.47300352607e-13
0.00150034008623
3.80763679973e-14
0.00150034008645
1.00909865842e-13
0.00150034008661
6.97238275899e-14
0.00150034008679
9.79558307242e-14
0.00150034008694
1.13938803608e-13
0.00150034008709
1.45590485426e-13
0.00150034008723
1.51858914182e-13
0.00150034008736
1.10375439423e-13
0.00150034008747
7.54924504297e-15
0.00150034008758
-1.63138999933e-13
0.00150034008768
-3.2894392221e-13
0.00150034008776
-3.88854471559e-13
0.00150034008783
-2.59484951925e-13
0.00150034008787
2.0159363001e-13
0.0015003400879
8.56451453194e-13
0.00150034008791
1.66874066569e-12
1.7489372329e-12
0.00132915622883
-5.48220186248e-05
0.00141798187955
-4.44128303686e-05
0.00147299902608
-2.75085704048e-05
0.00149389124895
-1.04461095453e-05
0.00150056642206
-3.33758636023e-06
0.00150176373633
-5.98656898978e-07
0.00150155556659
1.04085800384e-07
0.00150126509394
1.45236721782e-07
0.00150106823739
9.84280825434e-08
0.00150099174117
3.82479904725e-08
0.00150095971173
1.60148110066e-08
0.00150095331711
3.19741765666e-09
0.00150095151287