/*--------------------------------*- C++ -*----------------------------------*\
| =========                 |                                                 |
| \\      /  F ield         | OpenFOAM: The Open Source CFD Toolbox           |
|  \\    /   O peration     | Version:  2112                                  |
|   \\  /    A nd           | Website:  www.openfoam.com                      |
|    \\/     M anipulation  |                                                 |
\*---------------------------------------------------------------------------*/
FoamFile
{
    version     2.0;
    format      ascii;
    arch        "LSB;label=32;scalar=64";
    class       volScalarField;
    location    "0.2";
    object      T;
}
// * * * * * * * * * * * * * * * * * * * * * * * * * * * * * * * * * * * * * //

dimensions      [0 0 0 1 0 0 0];

internalField   nonuniform List<scalar> 
1681
(
302.229591381
303.771201937
304.423542142
304.846369687
305.155267442
305.369036224
305.518103729
305.622037388
305.693930717
305.743348485
305.777120082
305.800084307
305.815639973
305.826148994
305.833235792
305.838009027
305.841220887
305.843379984
305.844829669
305.845801676
305.846452401
305.846887367
305.847177727
305.847371437
305.84750081
305.847587635
305.847646648
305.8476879
305.847718388
305.84774319
305.847766276
305.847791097
305.847821011
305.847859514
305.847910513
305.847979869
305.848075209
305.848151685
305.848160674
305.848171423
305.848149395
301.837131963
303.403542139
304.120756641
304.567548525
304.882396502
305.09925139
305.249397481
305.353375037
305.42491809
305.473857365
305.507154931
305.529709368
305.544936904
305.555196373
305.562100323
305.566743257
305.569864154
305.571960696
305.573367806
305.574311023
305.574942348
305.575364263
305.575645847
305.575833656
305.575959052
305.57604318
305.576100338
305.576140274
305.576169772
305.576193757
305.576216079
305.576240085
305.576269021
305.576306267
305.57635557
305.576421881
305.576508892
305.576580932
305.576603603
305.576633011
305.576608109
301.534282146
303.072858352
303.832154304
304.298178491
304.618423533
304.837812923
304.988804046
305.092747626
305.163912971
305.212369602
305.245197226
305.267347143
305.282250622
305.292262967
305.298985143
305.303497979
305.306527663
305.308561228
305.309925328
305.310839386
305.311451028
305.311859685
305.312132352
305.312314161
305.312435515
305.312516902
305.312572174
305.312610771
305.312639264
305.312662419
305.312683964
305.312707139
305.312735078
305.312771039
305.312818571
305.312881809
305.312961996
305.313030977
305.313064858
305.313110532
305.313085128
301.297492411
302.776838378
303.558941561
304.038985482
304.363573539
304.584856791
304.736398885
304.840189408
304.910926634
304.95888249
304.991235892
305.012981715
305.027562513
305.037328718
305.04386947
305.048252068
305.05119014
305.053160249
305.054480891
305.05536542
305.055957097
305.056352297
305.056615906
305.056791621
305.056908868
305.056987472
305.057040829
305.057078069
305.057105542
305.057127856
305.057148616
305.057170949
305.057197881
305.05723254
305.057278266
305.057338503
305.057413071
305.057479955
305.05752303
305.057581811
305.057557019
301.109888088
302.512488652
303.301682882
303.790485488
304.118019873
304.340477094
304.49222651
304.595711047
304.665950328
304.713375597
304.74524359
304.766581834
304.780839223
304.79035922
304.796718424
304.800970471
304.803816498
304.805722696
304.806999469
304.807854133
304.808425593
304.808807153
304.80906158
304.809231117
304.809344201
304.809419983
304.8094714
304.809507266
304.80953371
304.809555176
304.809575143
304.809596631
304.80962255
304.809655902
304.809699816
304.809757183
304.809827096
304.809892536
304.80994314
304.810012386
304.809988875
300.959268878
302.276598318
303.060454613
303.553000939
303.881879558
304.104729696
304.256304157
304.359302762
304.428958243
304.475813484
304.507179217
304.528103253
304.542034875
304.55130784
304.557485086
304.561606218
304.564359813
304.566201718
304.567434284
304.568258809
304.568809843
304.569177615
304.569422757
304.569586047
304.569694922
304.569767853
304.569817311
304.569851792
304.569877197
304.569897812
304.569916985
304.569937625
304.569962533
304.569994581
304.5700367
304.570091359
304.57015738
304.57022181
304.570278549
304.570356121
304.570334299
300.836741807
302.066009668
302.834977236
303.326682671
303.655211209
303.877634088
304.028623541
304.130935588
304.19990858
304.246146551
304.276988593
304.297489281
304.311091529
304.320116104
304.326110835
304.330100717
304.332761593
304.334538935
304.335727053
304.336521241
304.337051698
304.337405574
304.337641356
304.337798349
304.337902982
304.337973041
304.338020528
304.338053615
304.338077979
304.338097741
304.338116121
304.338135917
304.338159819
304.338190574
304.338230934
304.338283056
304.33834579
304.338409479
304.338471176
304.338555336
304.338535419
300.735774303
301.87776494
302.624723944
303.111534846
303.438015895
303.659175087
303.809152225
303.910562281
303.978744254
304.024311576
304.054604861
304.074671093
304.087939407
304.096713878
304.102525485
304.106383875
304.108951879
304.11066452
304.11180806
304.112571799
304.113081591
304.113421505
304.113647883
304.11379855
304.113898924
304.1139661
304.11401161
304.114043301
304.114066625
304.114085535
304.114103126
304.114122083
304.11414499
304.11417447
304.114213117
304.114262873
304.114322795
304.114385895
304.11445155
304.114540873
304.114522932
300.651530971
301.709175789
302.429006411
302.90744028
303.230240231
303.449304655
303.59783484
303.69811809
303.76539347
303.810232142
303.839948809
303.859567967
303.872497092
303.881019517
303.886647414
303.890374193
303.892849327
303.894497273
303.895596224
303.896329491
303.896818595
303.89714453
303.897361492
303.897505827
303.897601938
303.89766623
303.897709764
303.897740062
303.897762348
303.897780413
303.897797221
303.89781535
303.897837273
303.897865502
303.897902491
303.897950042
303.898007521
303.8980701
303.898138859
303.898232158
303.898216165
300.580404898
301.557845957
302.247040302
302.714184492
303.03178094
303.247943918
303.394594267
303.493521456
303.559770212
303.603819001
303.632929152
303.652087509
303.664671698
303.672940016
303.678383685
303.681978885
303.684361313
303.685944717
303.686999186
303.687702051
303.68817051
303.688482494
303.68869006
303.688828077
303.688919938
303.688981357
303.689022923
303.689051835
303.689073092
303.689090319
303.689106354
303.689123664
303.689144622
303.689171627
303.689207014
303.689252508
303.689307831
303.689369897
303.689441022
303.6895373
303.689523159
300.519684017
301.421666881
302.07799384
302.531477453
302.842490275
303.054985359
303.199332803
303.296674686
303.361774697
303.404970401
303.433442781
303.452125857
303.46435905
303.472371159
303.477630186
303.481093997
303.483384049
303.484903208
303.48591342
303.48658604
303.487033962
303.48733207
303.487530291
303.487662028
303.487749665
303.487808229
303.487847843
303.487875382
303.48789562
303.487912019
303.487927292
303.487943799
303.487963809
303.48798962
303.488023465
303.488067035
303.48812042
303.488181936
303.488254789
303.488353197
303.488340774
300.46731209
301.298798727
301.921022699
302.35897256
302.662181794
302.870295144
303.011933334
303.107464606
303.171293796
303.213572401
303.241375007
303.259567882
303.271443857
303.279197682
303.284271777
303.287604552
303.289802717
303.291258068
303.292224359
303.292866975
303.293294529
303.293578877
303.293767836
303.293893349
303.293976802
303.294032542
303.294070224
303.294096407
303.29411564
303.294131225
303.29414575
303.294161467
303.29418055
303.294205199
303.294237562
303.294279323
303.294330934
303.294391834
303.294465857
303.294565664
303.294554803
300.421716498
301.187644564
301.775294219
302.196282713
302.490636149
302.693715524
302.832260521
302.925763212
302.988201454
303.02949916
303.056599797
303.074287386
303.085799891
303.093293434
303.098182449
303.101384701
303.103491621
303.10488373
303.105806538
303.106419469
303.10682688
303.107097625
303.10727743
303.107396795
303.107476119
303.107529072
303.10756485
303.107589697
303.107607943
303.107622729
303.10763652
303.107651466
303.107669644
303.107693163
303.107724099
303.107764152
303.10781411
303.107874307
303.107949008
303.108049576
303.108040116
300.38168351
301.086822333
301.640003476
302.042993606
302.32760661
302.52506725
302.660162002
302.751428325
302.812359096
302.852613242
302.878980008
302.896147313
302.907290172
302.914521556
302.919225492
302.922297887
302.924314343
302.925643895
302.926523753
302.92710739
302.927494934
302.92775227
302.927923056
302.928036367
302.928111625
302.928161837
302.928195745
302.928219281
302.928236558
302.928250561
302.928263635
302.928277828
302.928295124
302.928317547
302.92834711
302.92838554
302.928433929
302.928493322
302.928568267
302.928669036
302.928660816
300.346267442
300.995137268
301.514383275
301.898674467
302.172824189
302.364151937
302.495469585
302.584304257
302.643616053
302.682765911
302.708367633
302.724999956
302.735767173
302.742734675
302.747253682
302.75019703
302.752123933
302.753391718
302.754229243
302.754784039
302.755152039
302.755396192
302.755558116
302.755665482
302.75573675
302.755784274
302.755816349
302.755838601
302.755854932
302.755868171
302.755880545
302.755894004
302.755910442
302.755931802
302.75596004
302.75599692
302.756043797
302.756102276
302.756177077
302.756277549
302.756270415
300.31472417
300.911556211
301.397709712
301.762886549
302.026002258
302.210754354
302.33800044
302.424222482
302.481809982
302.51979745
302.544604056
302.560687188
302.571073028
302.577775106
302.582109486
302.584924731
302.586763104
302.587970007
302.588765888
302.589292351
302.589641171
302.589872395
302.590025634
302.590127176
302.59019454
302.590239434
302.590269718
302.590290717
302.590306125
302.59031862
302.590330314
302.590343058
302.590358662
302.59037899
302.590405949
302.590441337
302.590486738
302.590544189
302.590618496
302.590718226
302.590712034
300.286462195
300.835184463
301.289304578
301.635189694
301.886840622
302.064644584
302.187558269
302.271002316
302.326767317
302.363537481
302.387520319
302.403040704
302.41303976
302.419475075
302.423625279
302.426313483
302.428064449
302.429211436
302.429966425
302.430465111
302.430795148
302.431013722
302.431158469
302.431254322
302.431317873
302.431360202
302.43138874
302.431408519
302.431423028
302.431434801
302.431445833
302.431457884
302.431472676
302.431492004
302.431517726
302.43155167
302.43159561
302.431651916
302.431725416
302.431824002
302.431818621
300.261006423
300.765245396
301.188535569
301.515147273
301.755029044
301.925580033
302.043934444
302.124451597
302.178303709
302.213805304
302.23693741
302.251882274
302.261489529
302.267656959
302.271623582
302.274185916
302.275850682
302.276938784
302.277653686
302.278125189
302.278436869
302.278643092
302.278779554
302.278869861
302.278929699
302.278969532
302.278996371
302.279014965
302.279028603
302.279039674
302.279050064
302.279061442
302.279075448
302.279093803
302.279118324
302.279150862
302.279193345
302.279248389
302.279320796
302.279417875
302.279413183
300.237971205
300.701062753
301.094815034
301.402329799
301.630250248
301.793307283
301.906909102
301.984367364
302.036224502
302.070410258
302.092666557
302.107024024
302.116234896
302.122133545
302.125917318
302.128355047
302.129934892
302.130965194
302.131640855
302.132085801
302.132379571
302.132573758
302.132702155
302.132787067
302.132843295
302.132880703
302.132905894
302.132923339
302.132936133
302.132946524
302.132956294
302.132967019
302.13298026
302.132997672
302.133021024
302.133052185
302.133093203
302.133146869
302.133217923
302.133313162
302.133309052
300.217040147
300.642045451
301.007597784
301.296317458
301.512182428
301.66756377
301.776252197
301.850536535
301.900325196
301.933152083
301.954509552
301.968268722
301.977079097
301.982708308
301.986310091
301.988624558
301.990120815
301.991094446
301.991731742
301.99215078
301.992427107
301.992609585
301.992730143
301.992809816
301.992862543
301.9928976
301.992921196
301.992937529
301.992949506
301.992959241
301.99296841
301.992978502
301.992991002
301.993007496
301.993029708
301.993059514
301.99309905
301.993151224
301.993220686
301.99331378
301.993310156
300.197950885
300.587674621
300.926378341
301.196701773
301.400501308
301.548079287
301.65172449
301.722736572
301.770391937
301.801821308
301.822259083
301.835410095
301.843816352
301.849175702
301.852596474
301.85478909
301.856203136
301.857121252
301.857721083
301.858114878
301.858374238
301.858545343
301.858658295
301.85873289
301.858782225
301.858815007
301.858837061
301.85885232
301.858863509
301.85887261
301.858881198
301.858890678
301.858902459
301.858918058
301.858939155
301.858967621
301.859005651
301.859056223
301.859123873
301.859214544
301.859211318
300.180483538
300.537492613
300.850687916
301.103086601
301.294881812
301.43457732
301.533078482
301.600736132
301.646201997
301.676199648
301.695699082
301.708233149
301.716232174
301.721321474
301.724562322
301.726634553
301.727967792
301.72883157
301.729394847
301.729764074
301.730006952
301.730167023
301.730272606
301.730342284
301.730388339
301.730418924
301.730439488
301.730453711
301.730464141
301.730472631
301.730480659
301.730489546
301.730500627
301.730515354
301.730535358
301.730562494
301.73059899
301.730647853
301.730713488
301.730801477
301.730798573
300.16445188
300.491093691
300.78009128
301.015088594
301.194999378
301.326776219
301.420059283
301.484295704
301.527524269
301.556060406
301.574605091
301.586514517
301.594103706
301.598922993
301.601985104
301.603938454
301.605192309
301.606002932
301.606530571
301.606875908
301.607102789
301.607252168
301.607350618
301.607415544
301.60745843
301.607486895
301.607506023
301.607519249
301.607528947
301.607536849
301.607544335
301.607552649
301.60756305
301.607576927
301.607595854
301.607621665
301.607656595
301.607703646
301.607767077
301.607852146
301.607849496
300.149696552
300.448116183
300.714183666
300.932337263
301.100530974
301.224390211
301.312405417
301.373168223
301.414119751
301.441168898
301.458744637
301.470022813
301.477200065
301.481749599
301.484634243
301.486470245
301.487646143
301.488404791
301.488897705
301.489219826
301.489431194
301.489570222
301.489661774
301.48972211
301.48976194
301.48978836
301.489806106
301.489818371
301.489827366
301.489834701
301.489841666
301.489849424
301.489859165
301.489872208
301.489890076
301.489914563
301.489947892
301.489993031
301.490054085
301.490136011
301.490133555
300.13607979
300.408235836
300.652587782
300.854474745
301.011155854
301.127130278
301.209849565
301.267099665
301.305742041
301.331282871
301.347877626
301.358519005
301.365282714
301.369562958
301.372271477
301.373991677
301.37509104
301.375798884
301.376257975
301.376557546
301.376753878
301.37688289
301.376967778
301.377023684
301.377060566
301.377085018
301.377101433
301.377112775
301.377121093
301.377127884
301.377134346
301.377141566
301.377150663
301.377162891
301.37717971
301.377202872
301.377234565
301.377277696
301.37733621
301.377414787
301.377412472
300.123481313
300.371160208
300.594950971
300.781155345
300.926556098
301.034704898
301.112119235
301.165829612
301.202137813
301.226152934
301.241756736
301.251756801
301.258105829
301.262117436
301.264651231
301.266257181
301.267281413
301.267939604
301.268365756
301.268643429
301.268825194
301.268944518
301.26902297
301.269074601
301.269108643
301.2691312
301.269146336
301.269156791
301.269164459
301.269170726
301.269176702
301.269183401
301.269191872
301.269203299
301.26921908
301.269240912
301.269270931
301.269311965
301.269367785
301.269442822
301.269440601
300.111795072
300.336623909
300.540942558
300.712044917
300.846416962
300.946820661
301.018937384
301.069091798
301.103047301
301.125522991
301.140127829
301.149483036
301.155416689
301.159160487
301.161521005
301.163014246
301.163964726
301.164574385
301.16496846
301.165224871
301.165392523
301.165502478
301.165574714
301.165622224
301.16565353
301.165674263
301.165688169
301.165697771
301.165704815
301.165710578
301.165716086
301.165722279
301.165730138
301.165740779
301.16575553
301.165776025
301.165804333
301.165843182
301.165896167
301.165967484
301.165965317
300.100926676
300.304384561
300.490251381
300.646820147
300.770427088
300.863182794
300.930022971
300.976614623
301.008204761
301.029130676
301.042730361
301.051438079
301.056956076
301.060433045
301.062621763
301.064003817
301.06488189
301.065444106
301.065806936
301.066042696
301.066196673
301.066297568
301.066363803
301.066407337
301.066436007
301.066454985
301.066467707
301.06647649
301.066482935
301.066488213
301.066493269
301.066498971
301.066506233
301.066516098
301.066529827
301.066548976
301.066575535
301.066612117
301.066662134
301.066729563
301.066727414
300.090791317
300.274219339
300.442583507
300.585167758
300.698278578
300.783495577
300.84509146
300.888121645
300.917338937
300.936707789
300.949297802
300.957356242
300.962458678
300.965669929
300.967688342
300.968960701
300.969767667
300.970283487
300.970615872
300.970831568
300.970972291
300.97106442
300.971124856
300.971164554
300.971190685
300.971207973
300.971219558
300.971227553
300.971233421
300.971238233
300.971242851
300.971248077
300.971254754
300.971263855
300.971276565
300.97129436
300.971319133
300.97135337
300.971400293
300.971463676
300.971461516
300.081312089
300.245922007
300.397660132
300.52678368
300.629666982
300.707462687
300.763855272
300.803332043
300.830173506
300.847980724
300.859558058
300.866966195
300.871653498
300.874600256
300.87644986
300.877613975
300.878351086
300.878821511
300.87912421
300.879320402
300.879448269
300.879531911
300.879586742
300.879622738
300.879646419
300.879662079
300.879672569
300.879679807
300.879685121
300.879689482
300.879693679
300.879698441
300.879704544
300.879712891
300.879724585
300.879741015
300.879763967
300.879795783
300.879839493
300.879898682
300.879896486
300.072418612
300.219300345
300.35521565
300.471372209
300.564291206
300.634787468
300.686024189
300.721961059
300.746427523
300.762670908
300.773233895
300.779991383
300.78426428
300.786947853
300.788630133
300.789687408
300.790355856
300.790781835
300.791055569
300.791232782
300.791348169
300.791423588
300.791472996
300.791505414
300.791526731
300.791540821
300.791550256
300.791556766
300.791561546
300.791565473
300.79156926
300.791573569
300.79157911
300.79158671
300.791597391
300.791612445
300.791633541
300.791662865
300.791703251
300.791758103
300.791755856
300.064045886
300.194173917
300.314995891
300.418645181
300.501853372
300.565173156
300.61130573
300.643720418
300.665815847
300.680495224
300.690043363
300.696150452
300.700009919
300.702431682
300.7039481
300.704899878
300.705500794
300.705883218
300.70612866
300.706287388
300.706390646
300.706458087
300.706502243
300.706531199
300.706550231
300.706562806
300.706571224
300.706577031
300.706581295
300.706584803
300.706588193
300.706592061
300.706597048
300.706603909
300.706613578
300.706627244
300.70664645
300.706673217
300.706710171
300.706760551
300.706758241
300.056133328
300.170372107
300.276756515
300.368321176
300.442058648
300.498323055
300.539405488
300.568318734
300.588049569
300.601166444
300.609700227
300.615157676
300.618604895
300.620766265
300.622118243
300.622965801
300.623500244
300.623839946
300.624057723
300.624198421
300.624289875
300.624349566
300.624388626
300.624414228
300.624431048
300.624442158
300.624449593
300.62445472
300.624458488
300.62446159
300.624464593
300.624468029
300.624472471
300.624478598
300.624487255
300.624499523
300.624516807
300.624540953
300.624574375
300.62462015
300.624617775
300.048623951
300.147732399
300.240261577
300.32012479
300.384615078
300.433940701
300.470027455
300.4954619
300.512836433
300.524393653
300.53191439
300.536723379
300.539759697
300.541662107
300.542851017
300.543595556
300.544064512
300.544362259
300.544552946
300.544676033
300.54475598
300.544808129
300.544842235
300.544864581
300.544879257
300.544888947
300.54489543
300.5448999
300.544903186
300.544905894
300.54490852
300.544911533
300.544915437
300.544920835
300.54492848
300.544939338
300.54495467
300.544976137
300.545005929
300.545046968
300.54504454
300.041463661
300.126098874
300.205282283
300.273785999
300.329233437
300.371730017
300.402874336
300.424853484
300.43988125
300.449882683
300.456392333
300.460554372
300.463181252
300.464826129
300.465853276
300.466495915
300.466900289
300.467156782
300.4673209
300.467426754
300.467495462
300.467540256
300.467569539
300.467588717
300.467601308
300.467609619
300.467615178
300.467619011
300.467621829
300.467624154
300.467626413
300.467629009
300.467632382
300.467637054
300.467643685
300.467653123
300.467666476
300.467685208
300.467711277
300.467747447
300.467744989
300.034600656
300.105320936
300.171595962
300.229039659
300.275627139
300.311395496
300.337647883
300.356195127
300.368886337
300.377336549
300.382837544
300.386354387
300.388573361
300.389962098
300.390828708
300.391370474
300.391711084
300.391926951
300.392064968
300.392153925
300.392211634
300.392249238
300.392273811
300.3922899
300.392300459
300.392307427
300.392312087
300.3923153
300.392317663
300.392319614
300.392321512
300.392323699
300.392326545
300.392330496
300.392336112
300.392344118
300.392355466
300.392371414
300.392393671
300.392424831
300.392422387
300.02798492
300.085252318
300.138985344
300.185625196
300.22351226
300.252642438
300.274049256
300.289186966
300.299551954
300.306455896
300.310950971
300.313824517
300.315637132
300.316771061
300.317478263
300.31792008
300.318197656
300.31837345
300.318485772
300.318558127
300.318605042
300.318635601
300.318655564
300.31866863
300.318677204
300.31868286
300.318686643
300.31868925
300.318691169
300.318692754
300.318694299
300.318696081
300.318698405
300.318701635
300.318706234
300.318712801
300.31872212
300.318735238
300.318753598
300.318779596
300.318777235
300.021567846
300.065750457
300.107238229
300.143286552
300.1726077
300.19517728
300.21177945
300.223528105
300.231576787
300.236939473
300.240431479
300.242663667
300.244071427
300.244951783
300.24550059
300.245843269
300.246058438
300.246194631
300.246281606
300.246337607
300.246373904
300.24639754
300.246412975
300.246423076
300.246429702
300.246434073
300.246436996
300.246439011
300.246440493
300.246441719
300.246442916
300.246444298
300.246446102
300.246448614
300.246452194
300.246457312
300.246464583
300.246474832
300.246489216
300.246509876
300.246507701
300.015302009
300.04667647
300.076147734
300.101772481
300.122635585
300.138708074
300.150539826
300.158917151
300.164658471
300.168484638
300.170976332
300.172569017
300.173573309
300.174201189
300.174592471
300.174836693
300.174989976
300.175086956
300.175148865
300.175188713
300.175214533
300.175231342
300.175242317
300.175249498
300.175254208
300.175257315
300.175259391
300.175260823
300.175261877
300.175262749
300.175263601
300.175264586
300.175265873
300.175267667
300.175270226
300.175273888
300.175279095
300.175286441
300.175296777
300.175311895
300.175310049
300.009141207
300.027896034
300.045513326
300.060837304
300.073321987
300.082945179
300.090032799
300.095052859
300.098494191
300.100787904
300.102281709
300.103236512
300.103838513
300.104214817
300.104449268
300.104595564
300.104687358
300.10474542
300.104782475
300.10480632
300.104821767
300.104831822
300.104838386
300.104842681
300.104845497
300.104847355
300.104848596
300.104849453
300.104850083
300.104850604
300.104851114
300.104851705
300.104852476
300.104853553
300.104855089
300.104857289
300.104860418
300.104864837
300.104871066
300.104880393
300.104879072
300.003040902
300.009281735
300.015143022
300.020242263
300.024398087
300.027602258
300.029962751
300.031634938
300.03278139
300.033545572
300.034043266
300.034361372
300.034561927
300.03468728
300.03476537
300.034814092
300.034844658
300.03486399
300.034876325
300.034884262
300.034889403
300.03489275
300.034894934
300.034896363
300.0348973
300.034897918
300.034898332
300.034898616
300.034898826
300.034899
300.03489917
300.034899366
300.034899623
300.034899982
300.034900495
300.034901228
300.034902272
300.034903747
300.034905828
300.03490906
300.034908516
)
;

boundaryField
{
    in
    {
        type            fixedValue;
        value           uniform 300;
    }
    out
    {
        type            zeroGradient;
    }
    top
    {
        type            fixedValue;
        value           uniform 300;
    }
    bottom
    {
        type            fixedGradient;
        gradient        nonuniform List<scalar> 
41
(
21.1256169689
16.6247178189
12.9137742283
11.7807908536
11.5418463112
11.3961605005
11.3453157723
11.3423423287
11.3566785687
11.3768088747
11.3968261768
11.4140891877
11.4278510463
11.4382620803
11.4458465262
11.4512206095
11.4549521455
11.4575061987
11.4592376835
11.4604050097
11.4611900165
11.4617175283
11.4620719965
11.4623103057
11.4624708522
11.462579669
11.4626545078
11.4627075845
11.4627474507
11.4627802909
11.4628108935
11.4628434718
11.4628824873
11.4629323993
11.4629971106
11.4631138407
11.4635320682
11.4637945523
11.4631188419
11.4624074334
11.4624312039
)
;
    }
    frontback
    {
        type            empty;
    }
}


// ************************************************************************* //
