/*--------------------------------*- C++ -*----------------------------------*\
| =========                 |                                                 |
| \\      /  F ield         | OpenFOAM: The Open Source CFD Toolbox           |
|  \\    /   O peration     | Version:  2112                                  |
|   \\  /    A nd           | Website:  www.openfoam.com                      |
|    \\/     M anipulation  |                                                 |
\*---------------------------------------------------------------------------*/
FoamFile
{
    version     2.0;
    format      ascii;
    arch        "LSB;label=32;scalar=64";
    class       volVectorField;
    location    "0.2";
    object      U;
}
// * * * * * * * * * * * * * * * * * * * * * * * * * * * * * * * * * * * * * //

dimensions      [0 1 -1 0 0 0 0];

internalField   nonuniform List<vector> 
1681
(
(0.1130959837 0.039762777403 0)
(0.105593732641 0.00404140601725 0)
(0.0753206981107 0.000263626495048 0)
(0.0773212182205 0.000259727190132 0)
(0.0747911181109 -5.25905229538e-05 0)
(0.0756236077969 2.64594681521e-05 0)
(0.0753165685493 -1.91561504977e-05 0)
(0.0755320397113 4.075467359e-06 0)
(0.0754759291047 -4.21384043612e-06 0)
(0.075520160473 1.09957311861e-06 0)
(0.0755057851566 -7.77039446457e-07 0)
(0.075514098592 3.13674144058e-07 0)
(0.0755103865243 -1.440950706e-07 0)
(0.075512017709 7.74053316581e-08 0)
(0.0755111501825 -3.01970583774e-08 0)
(0.0755115039442 1.70086417299e-08 0)
(0.0755113158584 -6.97143684922e-09 0)
(0.0755113971505 3.56911264472e-09 0)
(0.0755113572874 -1.62684770658e-09 0)
(0.0755113759437 7.59137147393e-10 0)
(0.0755113673648 -3.66665486283e-10 0)
(0.0755113715483 1.68138646157e-10 0)
(0.0755113696621 -7.91944838469e-11 0)
(0.0755113705882 3.91722437002e-11 0)
(0.0755113701739 -1.54603395429e-11 0)
(0.0755113703831 1.03635831721e-11 0)
(0.0755113702972 -1.89453531038e-12 0)
(0.0755113703494 3.75636031249e-12 0)
(0.0755113703361 8.06235868123e-13 0)
(0.075511370353 2.108610464e-12 0)
(0.0755113703546 1.32807130224e-12 0)
(0.0755113703626 1.56534132827e-12 0)
(0.0755113703676 1.23080574199e-12 0)
(0.0755113703743 1.0929749722e-12 0)
(0.0755113703804 9.63065777461e-13 0)
(0.0755113703873 7.53502172515e-13 0)
(0.0755113703937 8.58543244895e-13 0)
(0.0755113703987 6.02237581472e-13 0)
(0.075511370398 9.11562680736e-13 0)
(0.075511370396 9.32329276345e-13 0)
(0.0755113703793 1.61912520108e-12 0)
(0.261383904798 0.102230112101 0)
(0.258090326749 0.0143135478773 0)
(0.195428690027 0.00220889830666 0)
(0.198566141396 0.00106787261822 0)
(0.192444659862 -7.26853114191e-05 0)
(0.194183761213 7.89863122756e-05 0)
(0.193468050637 -6.19511985834e-05 0)
(0.193953540798 6.55986090217e-06 0)
(0.193830981636 -1.47373401501e-05 0)
(0.193933118395 2.22733279269e-06 0)
(0.193901870435 -2.55484102327e-06 0)
(0.193921022557 8.5328230991e-07 0)
(0.193912775264 -4.18057654062e-07 0)
(0.193916471876 2.35699954952e-07 0)
(0.193914512946 -8.14351777858e-08 0)
(0.193915304927 5.2670439799e-08 0)
(0.193914877809 -1.92029285731e-08 0)
(0.193915059669 1.07382781276e-08 0)
(0.193914969338 -4.6855440074e-09 0)
(0.193915011268 2.20887619142e-09 0)
(0.193914991919 -1.08077974238e-09 0)
(0.19391500136 4.85167281872e-10 0)
(0.193914997119 -2.31342091158e-10 0)
(0.193914999214 1.16139321072e-10 0)
(0.193914998285 -4.31637307744e-11 0)
(0.19391499876 3.28470607757e-11 0)
(0.19391499857 -3.13264650791e-12 0)
(0.19391499869 1.32687039919e-11 0)
(0.193914998663 5.02597263329e-12 0)
(0.193914998703 7.94334568557e-12 0)
(0.193914998709 5.83565718706e-12 0)
(0.193914998729 6.35619184031e-12 0)
(0.193914998742 5.22747165692e-12 0)
(0.193914998759 4.44199042541e-12 0)
(0.193914998775 3.52897973512e-12 0)
(0.193914998793 3.19123127023e-12 0)
(0.193914998809 2.71502047245e-12 0)
(0.193914998821 2.39253409119e-12 0)
(0.193914998819 3.7658955996e-12 0)
(0.193914998813 4.32423642172e-12 0)
(0.193914998773 6.58266979396e-12 0)
(0.357968268337 0.136051009333 0)
(0.367129584867 0.0268451054276 0)
(0.290113505097 0.00648377269459 0)
(0.293525475358 0.00232299667085 0)
(0.284927588328 9.25547073705e-05 0)
(0.287143392128 0.000125379652221 0)
(0.286138419471 -0.00010562590351 0)
(0.286791057862 -2.6879561237e-06 0)
(0.286626003181 -2.77539052255e-05 0)
(0.286766276062 9.5806098503e-07 0)
(0.286724770131 -4.51175194823e-06 0)
(0.286751172586 1.11507232926e-06 0)
(0.286740105515 -6.21255716011e-07 0)
(0.286745160663 3.7366401974e-07 0)
(0.286742503619 -1.05751022684e-07 0)
(0.286743577005 8.57612705443e-08 0)
(0.286742994616 -2.5882939901e-08 0)
(0.286743240504 1.68027533811e-08 0)
(0.286743117332 -6.83054258494e-09 0)
(0.286743174145 3.28093648677e-09 0)
(0.286743147829 -1.63813143684e-09 0)
(0.286743160656 7.08403653852e-10 0)
(0.286743154903 -3.48737845503e-10 0)
(0.286743157755 1.75027700187e-10 0)
(0.286743156498 -6.05987796438e-11 0)
(0.286743157148 5.29490840544e-11 0)
(0.286743156892 -5.16324789172e-13 0)
(0.286743157058 2.36499181218e-11 0)
(0.286743157023 1.13481695582e-11 0)
(0.28674315708 1.55820113186e-11 0)
(0.28674315709 1.21993436084e-11 0)
(0.28674315712 1.25781389589e-11 0)
(0.286743157139 1.04401798164e-11 0)
(0.286743157164 8.56875485288e-12 0)
(0.286743157188 6.41037362233e-12 0)
(0.286743157214 5.25724975386e-12 0)
(0.286743157237 4.35970572467e-12 0)
(0.286743157254 4.43319697656e-12 0)
(0.286743157252 7.56622966229e-12 0)
(0.286743157242 1.0241686099e-11 0)
(0.286743157186 1.4257825321e-11 0)
(0.42024036788 0.151568550953 0)
(0.444346484991 0.0385079459072 0)
(0.364026238693 0.0118880259957 0)
(0.367747656011 0.00379822000099 0)
(0.35758030383 0.000423919125121 0)
(0.360039120682 0.000165742886701 0)
(0.358822300371 -0.000140462839124 0)
(0.359574405223 -2.12204763949e-05 0)
(0.359379174742 -4.10081970113e-05 0)
(0.35954409261 -2.49328735672e-06 0)
(0.359495960388 -6.3648719035e-06 0)
(0.359527258011 1.0413283604e-06 0)
(0.359514405393 -7.30560570229e-07 0)
(0.359520384788 4.66519870403e-07 0)
(0.359517277831 -1.00373337655e-07 0)
(0.359518539123 1.10911452785e-07 0)
(0.359517854656 -2.5970777381e-08 0)
(0.359518142548 2.08480869663e-08 0)
(0.359517997561 -7.70854741035e-09 0)
(0.359518064097 3.81515914978e-09 0)
(0.359518033156 -1.95103002196e-09 0)
(0.359518048206 8.01459515973e-10 0)
(0.359518041456 -4.15008268603e-10 0)
(0.359518044809 2.03692312752e-10 0)
(0.359518043338 -6.75566198821e-11 0)
(0.359518044104 6.56595358059e-11 0)
(0.359518043806 3.51045320863e-12 0)
(0.359518044004 3.13098342278e-11 0)
(0.359518043966 1.67198004209e-11 0)
(0.359518044034 2.16234015813e-11 0)
(0.359518044049 1.72808616889e-11 0)
(0.359518044086 1.71771889105e-11 0)
(0.35951804411 1.44072851165e-11 0)
(0.359518044142 1.11091578688e-11 0)
(0.359518044172 7.96457446851e-12 0)
(0.359518044204 5.60812833028e-12 0)
(0.359518044232 4.86249129747e-12 0)
(0.359518044253 6.42771801886e-12 0)
(0.35951804425 1.20245787104e-11 0)
(0.359518044237 1.81237812788e-11 0)
(0.35951804417 2.32868072402e-11 0)
(0.45957827917 0.156228373113 0)
(0.49823570362 0.0480338634787 0)
(0.421225242256 0.0173288358266 0)
(0.425631435529 0.00533678147834 0)
(0.414619801636 0.000854591053062 0)
(0.417204950828 0.000209349461135 0)
(0.415829959209 -0.000165497635452 0)
(0.416636542237 -4.39573067865e-05 0)
(0.416417042622 -5.38112045277e-05 0)
(0.416597129392 -7.21721306834e-06 0)
(0.41654426479 -8.13023492243e-06 0)
(0.416578856528 7.36560082423e-07 0)
(0.416564839099 -7.87349409832e-07 0)
(0.416571470116 5.24482711139e-07 0)
(0.416568072214 -7.74604431662e-08 0)
(0.416569465435 1.30120098159e-07 0)
(0.416568713396 -2.18650183782e-08 0)
(0.416569029969 2.35438038449e-08 0)
(0.416568870202 -7.73449025324e-09 0)
(0.416568943261 4.00495786731e-09 0)
(0.416568909156 -2.09747561785e-09 0)
(0.416568925696 8.09100164577e-10 0)
(0.416568918266 -4.48563759167e-10 0)
(0.416568921959 2.11305083272e-10 0)
(0.416568920343 -6.8913886711e-11 0)
(0.416568921189 7.17584605995e-11 0)
(0.416568920865 6.74375127274e-12 0)
(0.416568921085 3.58508040176e-11 0)
(0.416568921045 2.0375103727e-11 0)
(0.416568921123 2.56287748913e-11 0)
(0.416568921141 2.09496786128e-11 0)
(0.416568921183 2.04905458552e-11 0)
(0.416568921212 1.67477200148e-11 0)
(0.416568921248 1.21256116189e-11 0)
(0.416568921283 7.59411172871e-12 0)
(0.416568921319 4.75512463841e-12 0)
(0.416568921352 4.47183801739e-12 0)
(0.416568921375 8.10343636453e-12 0)
(0.416568921371 1.68792169388e-11 0)
(0.416568921355 2.73829549264e-11 0)
(0.416568921281 3.32506628921e-11 0)
(0.483609231619 0.153915842581 0)
(0.535110872734 0.0551798148605 0)
(0.4651145728 0.0222120860378 0)
(0.47066029005 0.00682719578967 0)
(0.459370490931 0.00132721987247 0)
(0.462035274012 0.000260008434135 0)
(0.46054160583 -0.000181945131886 0)
(0.461372917499 -6.73580409178e-05 0)
(0.461131520096 -6.58317129023e-05 0)
(0.461320003452 -1.24816131861e-05 0)
(0.461263267253 -9.82826057495e-06 0)
(0.461300035211 2.99278511473e-07 0)
(0.461285215071 -8.23476463123e-07 0)
(0.461292324284 5.59152333212e-07 0)
(0.461288737421 -4.68140868629e-08 0)
(0.461290229473 1.45490468014e-07 0)
(0.461289432481 -1.56256424267e-08 0)
(0.461289769793 2.54901420059e-08 0)
(0.461289599777 -7.2839320067e-09 0)
(0.46128967738 4.01710042496e-09 0)
(0.461289641027 -2.14814890726e-09 0)
(0.461289658594 7.71443422852e-10 0)
(0.461289650681 -4.64390567414e-10 0)
(0.461289654609 2.07138774882e-10 0)
(0.461289652892 -6.7966289318e-11 0)
(0.461289653796 7.40719754326e-11 0)
(0.461289653453 9.38056030683e-12 0)
(0.46128965369 3.81900990062e-11 0)
(0.461289653649 2.29467606721e-11 0)
(0.461289653734 2.78617066657e-11 0)
(0.461289653755 2.31113964693e-11 0)
(0.461289653801 2.2306046508e-11 0)
(0.461289653833 1.78660065441e-11 0)
(0.461289653873 1.23990451498e-11 0)
(0.461289653911 6.47108327525e-12 0)
(0.461289653952 3.14545882922e-12 0)
(0.461289653986 3.41698683191e-12 0)
(0.461289654011 9.6399568243e-12 0)
(0.461289654007 2.1779209743e-11 0)
(0.46128965399 3.73193786624e-11 0)
(0.461289653912 4.35981555437e-11 0)
(0.497510420114 0.147070536582 0)
(0.559694654335 0.0600015037561 0)
(0.498496402956 0.026239992801 0)
(0.505587453702 0.00817504218501 0)
(0.49445171341 0.0017968712337 0)
(0.497189205913 0.000315931534431 0)
(0.495607664033 -0.000190792963048 0)
(0.496444229323 -8.9271627091e-05 0)
(0.496181519301 -7.66333271485e-05 0)
(0.49637347934 -1.77781435285e-05 0)
(0.496313146733 -1.14170714656e-05 0)
(0.49635128601 -2.04285730847e-07 0)
(0.496335865857 -8.5178442818e-07 0)
(0.496343340059 5.76343141695e-07 0)
(0.496339629903 -1.39487587588e-08 0)
(0.496341201367 1.5772939442e-07 0)
(0.49634037448 -8.46354698511e-09 0)
(0.496340727859 2.69303149106e-08 0)
(0.496340550562 -6.56515520281e-09 0)
(0.496340631491 3.93320751668e-09 0)
(0.496340593469 -2.13859892245e-09 0)
(0.496340611767 7.10819124398e-10 0)
(0.496340603493 -4.68768406134e-10 0)
(0.496340607591 1.96061692866e-10 0)
(0.496340605799 -6.60906409591e-11 0)
(0.496340606745 7.38917396594e-11 0)
(0.496340606389 1.12470231029e-11 0)
(0.496340606639 3.97009339714e-11 0)
(0.496340606598 2.46770101832e-11 0)
(0.496340606688 2.94105719202e-11 0)
(0.496340606711 2.46240368018e-11 0)
(0.496340606761 2.34690189618e-11 0)
(0.496340606796 1.81562130079e-11 0)
(0.496340606838 1.19056553055e-11 0)
(0.496340606879 4.89033876804e-12 0)
(0.496340606922 1.09176254893e-12 0)
(0.496340606958 1.80713317734e-12 0)
(0.496340606984 1.08663208199e-11 0)
(0.49634060698 2.65602619116e-11 0)
(0.496340606962 4.72678692618e-11 0)
(0.496340606882 5.42851269973e-11 0)
(0.504792971983 0.137450954041 0)
(0.575495188247 0.0626693588166 0)
(0.52365123752 0.0292679282106 0)
(0.532589119835 0.00930465840893 0)
(0.521926941356 0.00222779077558 0)
(0.524750303739 0.000372940195049 0)
(0.523105928104 -0.00019294962144 0)
(0.523935206408 -0.000108298906422 0)
(0.523651029222 -8.57605044789e-05 0)
(0.523842852313 -2.27219808469e-05 0)
(0.523778897985 -1.28275692967e-05 0)
(0.523817811363 -7.24679611617e-07 0)
(0.523801899027 -8.75667632907e-07 0)
(0.523809661174 5.79120196121e-07 0)
(0.523805870365 1.78296389554e-08 0)
(0.523807509722 1.66886544791e-07 0)
(0.523806663181 -1.15576407149e-09 0)
(0.52380702989 2.79333026185e-08 0)
(0.523806847307 -5.70252487737e-09 0)
(0.523806930804 3.79269702454e-09 0)
(0.523806891489 -2.08677875527e-09 0)
(0.523806910328 6.3848315374e-10 0)
(0.523806901769 -4.64818468193e-10 0)
(0.523806905992 1.80947282663e-10 0)
(0.523806904144 -6.32440502647e-11 0)
(0.523806905121 7.2076651757e-11 0)
(0.523806904756 1.24040058336e-11 0)
(0.523806905015 3.9636953373e-11 0)
(0.523806904974 2.54908451865e-11 0)
(0.523806905069 3.01969364484e-11 0)
(0.523806905094 2.56624536207e-11 0)
(0.523806905146 2.41074217592e-11 0)
(0.523806905183 1.77316113014e-11 0)
(0.523806905227 1.06418494016e-11 0)
(0.52380690527 2.80028609255e-12 0)
(0.523806905315 -1.7506475858e-12 0)
(0.523806905352 1.92568255382e-13 0)
(0.523806905379 1.21546367867e-11 0)
(0.523806905375 3.17902201091e-11 0)
(0.523806905356 5.75298469454e-11 0)
(0.523806905277 6.48357870802e-11 0)
(0.507830241644 0.126290687153 0)
(0.585098433596 0.0634203254251 0)
(0.542416369315 0.0312501471175 0)
(0.553385431925 0.0101630505404 0)
(0.543421216429 0.00259247389802 0)
(0.546351311845 0.000426286943766 0)
(0.544664814811 -0.000189436260343 0)
(0.545478984001 -0.000123524119311 0)
(0.545173037756 -9.28309331382e-05 0)
(0.545362072437 -2.70120638636e-05 0)
(0.545294347059 -1.39889887482e-05 0)
(0.545333582806 -1.22147536119e-06 0)
(0.545317231571 -8.94559638017e-07 0)
(0.545325226474 5.69721889951e-07 0)
(0.545321382959 4.6344006303e-08 0)
(0.545323083094 1.72836987161e-07 0)
(0.545322224016 5.73686231561e-09 0)
(0.545322602426 2.85068291534e-08 0)
(0.54532241594 -4.7842785615e-09 0)
(0.545322501528 3.61648368051e-09 0)
(0.545322461171 -2.00354232387e-09 0)
(0.545322480425 5.62130748073e-10 0)
(0.545322471631 -4.54550096439e-10 0)
(0.54532247595 1.63821835658e-10 0)
(0.545322474054 -5.98509571497e-11 0)
(0.545322475057 6.90584337663e-11 0)
(0.545322474684 1.33654550498e-11 0)
(0.545322474951 3.89531146558e-11 0)
(0.545322474911 2.5698101187e-11 0)
(0.545322475008 3.05887354939e-11 0)
(0.545322475035 2.62392969334e-11 0)
(0.54532247509 2.41478207693e-11 0)
(0.545322475128 1.70732539243e-11 0)
(0.545322475174 9.2098982921e-12 0)
(0.545322475218 4.72719491182e-13 0)
(0.545322475264 -4.73595010945e-12 0)
(0.545322475302 -1.86194693003e-12 0)
(0.545322475329 1.3111396261e-11 0)
(0.545322475326 3.70817512151e-11 0)
(0.545322475308 6.76649256231e-11 0)
(0.54532247523 7.48578140577e-11 0)
(0.508222046596 0.114412203679 0)
(0.590400234632 0.0625170775286 0)
(0.556258688741 0.0322084274436 0)
(0.569334973903 0.0107187788197 0)
(0.560213583273 0.00287128398974 0)
(0.563271566396 0.000471465930163 0)
(0.561560023696 -0.000181334812911 0)
(0.562354509708 -0.00013440248832 0)
(0.562026662198 -9.75596242005e-05 0)
(0.56221099981 -3.04211185351e-05 0)
(0.562139336797 -1.48384396691e-05 0)
(0.562178551561 -1.66190821211e-06 0)
(0.562161785728 -9.05944242513e-07 0)
(0.562169971698 5.50014441666e-07 0)
(0.562166093986 7.01957627059e-08 0)
(0.562167850061 1.75425008088e-07 0)
(0.562166983482 1.18086338669e-08 0)
(0.562167372565 2.86319410612e-08 0)
(0.562167183169 -3.87446020977e-09 0)
(0.562167270534 3.41561572062e-09 0)
(0.562167229311 -1.89621923306e-09 0)
(0.562167248894 4.86525049615e-10 0)
(0.562167239898 -4.38563429162e-10 0)
(0.562167244294 1.46240406756e-10 0)
(0.562167242358 -5.62882299128e-11 0)
(0.56216724338 6.51427778734e-11 0)
(0.562167243002 1.40764039258e-11 0)
(0.562167243275 3.79188745933e-11 0)
(0.562167243235 2.56387606873e-11 0)
(0.562167243335 3.03596984858e-11 0)
(0.562167243364 2.63007268252e-11 0)
(0.56216724342 2.38216307612e-11 0)
(0.56216724346 1.62281573525e-11 0)
(0.562167243507 7.76073468442e-12 0)
(0.562167243552 -2.06568126822e-12 0)
(0.562167243598 -7.74720226858e-12 0)
(0.562167243637 -3.84088252012e-12 0)
(0.562167243664 1.41626996026e-11 0)
(0.562167243661 4.20707300367e-11 0)
(0.562167243644 7.79465977967e-11 0)
(0.562167243569 8.47137796183e-11 0)
(0.507042510369 0.102346113369 0)
(0.592783716826 0.0602176641189 0)
(0.566340322126 0.0322065128802 0)
(0.581509248127 0.010958504875 0)
(0.573309943109 0.00305171321251 0)
(0.576513098572 0.000504649981845 0)
(0.574790313586 -0.000169694114003 0)
(0.575562805419 -0.000140675109745 0)
(0.575213251305 -9.97591019613e-05 0)
(0.575391581635 -3.2788816875e-05 0)
(0.575315860291 -1.53251491742e-05 0)
(0.575354796688 -2.02057242137e-06 0)
(0.575337627605 -9.06477862058e-07 0)
(0.575345971604 5.21597216602e-07 0)
(0.575342072051 8.85719237069e-08 0)
(0.57534388027 1.74519412286e-07 0)
(0.575343009787 1.67796806694e-08 0)
(0.575343408809 2.82810715901e-08 0)
(0.575343217236 -3.01843333753e-09 0)
(0.575343306158 3.19457839771e-09 0)
(0.5753432642 -1.77036196453e-09 0)
(0.575343284052 4.15075047347e-10 0)
(0.575343274878 -4.1748717163e-10 0)
(0.575343279336 1.28787419576e-10 0)
(0.575343277365 -5.24548924505e-11 0)
(0.575343278404 6.09174243114e-11 0)
(0.57534327802 1.43163479198e-11 0)
(0.575343278299 3.63775216667e-11 0)
(0.575343278259 2.51836285387e-11 0)
(0.575343278362 2.96165202126e-11 0)
(0.575343278391 2.58951618448e-11 0)
(0.575343278449 2.32123851647e-11 0)
(0.57534327849 1.53799621101e-11 0)
(0.575343278538 6.08927187236e-12 0)
(0.575343278583 -4.71192875464e-12 0)
(0.575343278629 -1.05075447207e-11 0)
(0.575343278668 -5.82339383124e-12 0)
(0.575343278695 1.49675650301e-11 0)
(0.575343278693 4.66093214394e-11 0)
(0.575343278677 8.76601382407e-11 0)
(0.575343278607 9.40059392916e-11 0)
(0.505008101692 0.0904223741764 0)
(0.593252428183 0.0567595935413 0)
(0.573575727823 0.0313313764733 0)
(0.590751731611 0.0108833418273 0)
(0.583500461329 0.00312742899102 0)
(0.586860118537 0.000522934357665 0)
(0.585136865556 -0.000155467504002 0)
(0.585886649183 -0.00014229951584 0)
(0.58551597559 -9.93358430083e-05 0)
(0.585687487637 -3.40149287179e-05 0)
(0.585607668824 -1.54130942639e-05 0)
(0.585646141396 -2.27904085873e-06 0)
(0.585628577399 -8.92822630425e-07 0)
(0.585637052237 4.85874013039e-07 0)
(0.585633139141 1.01089003889e-07 0)
(0.585634996016 1.70049007502e-07 0)
(0.585634124195 2.04710301618e-08 0)
(0.585634532531 2.74290161647e-08 0)
(0.585634339334 -2.24784288325e-09 0)
(0.585634429646 2.95470386616e-09 0)
(0.585634387058 -1.6290642083e-09 0)
(0.585634407132 3.48863003859e-10 0)
(0.585634397801 -3.91627173752e-10 0)
(0.585634402308 1.11752781484e-10 0)
(0.585634400307 -4.81364996888e-11 0)
(0.58563440136 5.58622424935e-11 0)
(0.585634400971 1.42898139213e-11 0)
(0.585634401254 3.42298750005e-11 0)
(0.585634401215 2.43512394714e-11 0)
(0.585634401319 2.84810360946e-11 0)
(0.58563440135 2.51082838838e-11 0)
(0.585634401409 2.22275579093e-11 0)
(0.585634401451 1.37478620288e-11 0)
(0.5856344015 4.0248142017e-12 0)
(0.585634401545 -7.58396237482e-12 0)
(0.585634401591 -1.32052058914e-11 0)
(0.58563440163 -7.68399424776e-12 0)
(0.585634401657 1.59227502836e-11 0)
(0.585634401656 5.12864189031e-11 0)
(0.585634401642 9.66013761791e-11 0)
(0.585634401577 1.02956581468e-10 0)
(0.502592180731 0.0788323272192 0)
(0.592529974212 0.0523534615943 0)
(0.578679941763 0.0296809249157 0)
(0.597724724076 0.0105055993479 0)
(0.591404747255 0.0030973055816 0)
(0.594925498552 0.000524434763794 0)
(0.593209740779 -0.000139477900551 0)
(0.593937244837 -0.0001393984156 0)
(0.593546444956 -9.62851709512e-05 0)
(0.593710754627 -3.4053425246e-05 0)
(0.593626898814 -1.50824096859e-05 0)
(0.593664784621 -2.42549787359e-06 0)
(0.59364683703 -8.62206252236e-07 0)
(0.593655419742 4.44097719683e-07 0)
(0.593651498674 1.07682270084e-07 0)
(0.593653400622 1.62025640346e-07 0)
(0.593652529252 2.27875518238e-08 0)
(0.593652946275 2.6062176688e-08 0)
(0.59365275188 -1.5834859599e-09 0)
(0.59365284344 2.69615011592e-09 0)
(0.593652800308 -1.475355912e-09 0)
(0.59365282057 2.89262383121e-10 0)
(0.593652811098 -3.60904216872e-10 0)
(0.593652815646 9.57714986946e-11 0)
(0.593652813617 -4.35141196843e-11 0)
(0.593652814682 5.05117283202e-11 0)
(0.593652814289 1.37425305347e-11 0)
(0.593652814576 3.19752464085e-11 0)
(0.593652814536 2.32645651802e-11 0)
(0.593652814643 2.71749212123e-11 0)
(0.593652814674 2.44698428892e-11 0)
(0.593652814735 2.13938712296e-11 0)
(0.593652814777 1.25105873673e-11 0)
(0.593652814827 1.70953236777e-12 0)
(0.593652814872 -1.03052844821e-11 0)
(0.593652814917 -1.59125139214e-11 0)
(0.593652814955 -9.71770413618e-12 0)
(0.593652814982 1.63722207665e-11 0)
(0.593652814983 5.55353152751e-11 0)
(0.593652814971 1.04831230091e-10 0)
(0.593652814912 1.11448724149e-10 0)
(0.500103458967 0.0676714565472 0)
(0.591134448961 0.0471816211544 0)
(0.582208505822 0.027356274703 0)
(0.602946451659 0.00984601127972 0)
(0.597507347113 0.00296451866076 0)
(0.601187061024 0.000508283838376 0)
(0.599484183144 -0.00012240056565 0)
(0.600190665777 -0.000132222683151 0)
(0.59978112341 -9.06845264301e-05 0)
(0.599938216838 -3.29073586474e-05 0)
(0.599850490636 -1.43297336427e-05 0)
(0.599887722215 -2.45439975377e-06 0)
(0.599869408749 -8.12748648959e-07 0)
(0.599878079633 3.97386247065e-07 0)
(0.599874154303 1.08529585781e-07 0)
(0.599876097424 1.50552820973e-07 0)
(0.599875227688 2.37053319775e-08 0)
(0.599875652709 2.4181055466e-08 0)
(0.599875457445 -1.0365684848e-09 0)
(0.599875550121 2.41812066371e-09 0)
(0.599875506522 -1.31111760547e-09 0)
(0.599875526941 2.36255549457e-10 0)
(0.599875517345 -3.25726891558e-10 0)
(0.599875521928 8.11227320662e-11 0)
(0.599875519874 -3.83470821355e-11 0)
(0.599875520949 4.52290039759e-11 0)
(0.599875520552 1.33095811003e-11 0)
(0.599875520842 2.92715441184e-11 0)
(0.599875520802 2.16034712766e-11 0)
(0.599875520911 2.55569604236e-11 0)
(0.599875520942 2.3449881662e-11 0)
(0.599875521004 2.01464535199e-11 0)
(0.599875521047 1.10668833433e-11 0)
(0.599875521097 -3.30920718521e-13 0)
(0.599875521142 -1.32124911277e-11 0)
(0.599875521186 -1.87481220639e-11 0)
(0.599875521224 -1.18934315049e-11 0)
(0.59987552125 1.69499892134e-11 0)
(0.599875521253 5.9003604289e-11 0)
(0.599875521243 1.12429073995e-10 0)
(0.599875521191 1.19029951132e-10 0)
(0.497739842337 0.0569695751142 0)
(0.589433815603 0.0413995249002 0)
(0.584589977856 0.0244570865034 0)
(0.606820373055 0.00893146116404 0)
(0.602185553189 0.00273573003905 0)
(0.606015850195 0.000474565606165 0)
(0.604328916892 -0.00010475900314 0)
(0.605016246666 -0.000121123901487 0)
(0.604589704803 -8.26856437026e-05 0)
(0.604739890268 -3.06240162755e-05 0)
(0.604648565275 -1.31677649327e-05 0)
(0.604685124648 -2.36609078114e-06 0)
(0.604666471105 -7.43625441971e-07 0)
(0.604675213124 3.46726839458e-07 0)
(0.604671285942 1.03998470254e-07 0)
(0.604673265917 1.35826408957e-07 0)
(0.60467239851 2.32615489183e-08 0)
(0.604672830747 2.18030901592e-08 0)
(0.604672634869 -6.09862827202e-10 0)
(0.604672728529 2.1202248145e-09 0)
(0.604672684533 -1.13816428507e-09 0)
(0.604672705084 1.89711305573e-10 0)
(0.604672695379 -2.86637430804e-10 0)
(0.604672699989 6.80097832063e-11 0)
(0.604672697914 -3.28548691126e-11 0)
(0.604672698998 3.96554440195e-11 0)
(0.604672698597 1.28020930464e-11 0)
(0.60467269889 2.63288586016e-11 0)
(0.604672698851 2.00533619854e-11 0)
(0.60467269896 2.39701273911e-11 0)
(0.604672698993 2.23534805032e-11 0)
(0.604672699055 1.88217103162e-11 0)
(0.604672699099 9.52345015343e-12 0)
(0.604672699149 -2.43488528561e-12 0)
(0.604672699193 -1.55498192639e-11 0)
(0.604672699236 -2.13967488735e-11 0)
(0.604672699273 -1.36306112951e-11 0)
(0.604672699299 1.72533151207e-11 0)
(0.604672699304 6.21043163246e-11 0)
(0.604672699297 1.19064571704e-10 0)
(0.604672699252 1.25473211886e-10 0)
(0.495625386553 0.0467120996381 0)
(0.587686898661 0.0351384889255 0)
(0.586152014259 0.0210789960519 0)
(0.609658219889 0.00779318852339 0)
(0.605731099607 0.00242037414311 0)
(0.60969807726 0.000424215149727 0)
(0.608028115865 -8.69309118434e-05 0)
(0.608698615278 -0.000106533328332 0)
(0.608257135977 -7.25061370325e-05 0)
(0.608401000146 -2.72900615152e-05 0)
(0.608306446501 -1.16242509595e-05 0)
(0.608342359468 -2.16634099696e-06 0)
(0.608323400239 -6.55118589711e-07 0)
(0.608332198596 2.92977249347e-07 0)
(0.608328271048 9.4607300174e-08 0)
(0.608330283116 1.18130222883e-07 0)
(0.608329418331 2.15488329838e-08 0)
(0.608329856899 1.89620950132e-08 0)
(0.608329660598 -2.99419792882e-10 0)
(0.608329755108 1.80295161548e-09 0)
(0.608329710781 -9.57778423748e-10 0)
(0.60832973144 1.49118273987e-10 0)
(0.608329721642 -2.43690719187e-10 0)
(0.608329726275 5.5784440395e-11 0)
(0.608329724181 -2.67541097164e-11 0)
(0.608329725272 3.39633122583e-11 0)
(0.608329724868 1.17114355598e-11 0)
(0.608329725164 2.33152277473e-11 0)
(0.608329725124 1.82540680356e-11 0)
(0.608329725235 2.19359856225e-11 0)
(0.608329725268 2.05242201184e-11 0)
(0.608329725331 1.7197321661e-11 0)
(0.608329725375 7.7020173636e-12 0)
(0.608329725425 -4.58023043044e-12 0)
(0.608329725468 -1.82435096575e-11 0)
(0.608329725511 -2.39574960759e-11 0)
(0.608329725547 -1.51289113119e-11 0)
(0.608329725573 1.75913705903e-11 0)
(0.608329725579 6.48131327949e-11 0)
(0.608329725575 1.24728038685e-10 0)
(0.608329725538 1.31132832906e-10 0)
(0.49383562911 0.0368548726696 0)
(0.586073531309 0.0285091263892 0)
(0.587141981702 0.0173124902359 0)
(0.611697971895 0.00646542432304 0)
(0.608366970144 0.0020300474364 0)
(0.612452045454 0.000358900606296 0)
(0.610798346278 -6.91613212035e-05 0)
(0.611454676765 -8.89452830115e-05 0)
(0.611000596293 -6.04207265167e-05 0)
(0.611138962214 -2.30265161255e-05 0)
(0.611041638402 -9.74054439427e-06 0)
(0.61107696871 -1.86578775483e-06 0)
(0.611057746475 -5.48579859694e-07 0)
(0.611066588266 2.36873015372e-07 0)
(0.611062661173 8.09950548065e-08 0)
(0.611064700149 9.78283076165e-08 0)
(0.61106383795 1.87050947831e-08 0)
(0.61106428186 1.57077345075e-08 0)
(0.611064085279 -9.58700387269e-11 0)
(0.611064180497 1.46796047841e-09 0)
(0.611064135902 -7.71558153274e-10 0)
(0.611064156648 1.14048126893e-10 0)
(0.611064146773 -1.97647088939e-10 0)
(0.611064151424 4.48841714413e-11 0)
(0.611064149315 -2.0505905362e-11 0)
(0.611064150412 2.82992147396e-11 0)
(0.611064150006 1.0437987467e-11 0)
(0.611064150303 2.01539958675e-11 0)
(0.611064150263 1.64345151935e-11 0)
(0.611064150375 1.95500945151e-11 0)
(0.611064150408 1.86413906041e-11 0)
(0.611064150472 1.55794384922e-11 0)
(0.611064150516 6.30006059386e-12 0)
(0.611064150566 -6.83435087218e-12 0)
(0.611064150609 -2.08029524988e-11 0)
(0.61106415065 -2.62912947666e-11 0)
(0.611064150685 -1.64565449678e-11 0)
(0.61106415071 1.75352034861e-11 0)
(0.611064150719 6.71102262527e-11 0)
(0.611064150718 1.29067790153e-10 0)
(0.611064150689 1.3560130686e-10 0)
(0.492414884412 0.0273343890714 0)
(0.584716517652 0.0216050126682 0)
(0.587742956853 0.0132427623448 0)
(0.61311770506 0.00498438650286 0)
(0.610260268082 0.00157799354039 0)
(0.61444105967 0.000280897975321 0)
(0.612801487105 -5.1580474078e-05 0)
(0.613446561403 -6.89035324501e-05 0)
(0.612982442691 -4.67521890518e-05 0)
(0.613116328088 -1.79835303941e-05 0)
(0.613016768042 -7.56981724028e-06 0)
(0.613051611223 -1.47928509692e-06 0)
(0.613032176078 -4.26336170437e-07 0)
(0.613041049974 1.79036081368e-07 0)
(0.613037123674 6.38962536858e-08 0)
(0.613039183996 7.53536054934e-08 0)
(0.613038324083 1.490796167e-08 0)
(0.613038772254 1.21049077822e-08 0)
(0.613038575496 1.57562728689e-11 0)
(0.613038671272 1.11756579312e-09 0)
(0.613038626471 -5.80743490109e-10 0)
(0.613038647284 8.35178107214e-11 0)
(0.613038637349 -1.48580084781e-10 0)
(0.613038642013 3.48085327633e-11 0)
(0.613038639892 -1.38312572767e-11 0)
(0.613038640993 2.26112618687e-11 0)
(0.613038640585 9.19677546459e-12 0)
(0.613038640883 1.69482077207e-11 0)
(0.613038640844 1.46361636578e-11 0)
(0.613038640956 1.76485283921e-11 0)
(0.61303864099 1.7159694275e-11 0)
(0.613038641054 1.3857189362e-11 0)
(0.613038641099 4.75140917659e-12 0)
(0.613038641148 -8.94066628542e-12 0)
(0.61303864119 -2.27035416639e-11 0)
(0.61303864123 -2.83710440634e-11 0)
(0.613038641264 -1.80942368667e-11 0)
(0.613038641289 1.74267604791e-11 0)
(0.6130386413 6.85002666272e-11 0)
(0.613038641302 1.32822104171e-10 0)
(0.613038641282 1.3921384952e-10 0)
(0.491387937779 0.0180748061562 0)
(0.583697376307 0.0145063522607 0)
(0.588085843027 0.00895021629229 0)
(0.614046038952 0.00338756348083 0)
(0.61153187628 0.0010786714253 0)
(0.615783084962 0.000192964779184 0)
(0.614154393845 -3.42246662605e-05 0)
(0.614791306175 -4.69896747604e-05 0)
(0.614319889704 -3.18620709028e-05 0)
(0.614450464843 -1.23349144476e-05 0)
(0.614349263052 -5.17500797926e-06 0)
(0.614383739883 -1.02517190088e-06 0)
(0.614364148054 -2.9154391707e-07 0)
(0.614373043971 1.19991490613e-07 0)
(0.614369118463 4.41185898915e-08 0)
(0.614371194261 5.11974848147e-08 0)
(0.614370336129 1.03673052085e-08 0)
(0.614370787401 8.22950121739e-09 0)
(0.614370590538 5.51127761782e-11 0)
(0.614370686719 7.54865351226e-10 0)
(0.614370641771 -3.86205353096e-10 0)
(0.614370662631 5.66177417318e-11 0)
(0.614370652653 -9.72255676448e-11 0)
(0.614370657327 2.56284447071e-11 0)
(0.614370655197 -7.18426867182e-12 0)
(0.6143706563 1.70157636443e-11 0)
(0.614370655891 7.94412830597e-12 0)
(0.614370656191 1.35801887205e-11 0)
(0.614370656151 1.25363049127e-11 0)
(0.614370656264 1.53262723354e-11 0)
(0.614370656298 1.54258385988e-11 0)
(0.614370656363 1.20891865959e-11 0)
(0.614370656408 2.98981483446e-12 0)
(0.614370656457 -1.05704906542e-11 0)
(0.614370656498 -2.44981059675e-11 0)
(0.614370656536 -2.99901417452e-11 0)
(0.614370656568 -1.92985832102e-11 0)
(0.614370656593 1.71484705708e-11 0)
(0.614370656607 6.95007593497e-11 0)
(0.614370656612 1.35282223921e-10 0)
(0.614370656601 1.41730835627e-10 0)
(0.490767780444 0.00899268147481 0)
(0.583067292167 0.00728348108352 0)
(0.588258192736 0.00451137549327 0)
(0.614569734588 0.00171321264946 0)
(0.612263454777 0.000547391076726 0)
(0.616557724844 9.82155440224e-05 0)
(0.614935878426 -1.7058813547e-05 0)
(0.615567846035 -2.38128059402e-05 0)