/*--------------------------------*- C++ -*----------------------------------*\
| =========                 |                                                 |
| \\      /  F ield         | OpenFOAM: The Open Source CFD Toolbox           |
|  \\    /   O peration     | Version:  2112                                  |
|   \\  /    A nd           | Website:  www.openfoam.com                      |
|    \\/     M anipulation  |                                                 |
\*---------------------------------------------------------------------------*/
FoamFile
{
    version     2.0;
    format      ascii;
    arch        "LSB;label=32;scalar=64";
    class       volVectorField;
    location    "0.2";
    object      UxB;
}
// * * * * * * * * * * * * * * * * * * * * * * * * * * * * * * * * * * * * * //

dimensions      [1 1 -3 0 0 -1 0];

internalField   nonuniform List<vector> 
1681
(
(0 0 0.113095984199)
(0 0 0.105593732413)
(0 0 0.0753206977921)
(0 0 0.077321218718)
(-0 0 0.0747911179709)
(0 0 0.0756236076384)
(-0 0 0.0753165686863)
(0 0 0.0755320397352)
(-0 0 0.075475929045)
(0 0 0.0755201604898)
(-0 0 0.075505785186)
(0 0 0.0755140985864)
(-0 0 0.0755103865236)
(0 0 0.0755120177228)
(-0 0 0.0755111501916)
(0 0 0.075511503949)
(-0 0 0.0755113158656)
(0 0 0.0755113971586)
(-0 0 0.0755113572947)
(0 0 0.0755113759512)
(-0 0 0.0755113673725)
(0 0 0.0755113715558)
(-0 0 0.0755113696695)
(0 0 0.0755113705955)
(-0 0 0.0755113701813)
(0 0 0.0755113703909)
(-0 0 0.0755113703051)
(0 0 0.0755113703574)
(0 0 0.0755113703442)
(0 0 0.0755113703607)
(0 0 0.0755113703625)
(0 0 0.0755113703709)
(0 0 0.0755113703759)
(0 0 0.0755113703827)
(0 0 0.0755113703891)
(0 0 0.0755113703965)
(0 0 0.0755113704029)
(0 0 0.0755113704076)
(0 0 0.0755113704068)
(0 0 0.0755113704049)
(0 0 0.0755113703876)
(0 0 0.26138390579)
(0 0 0.258090326565)
(0 0 0.195428689384)
(0 0 0.198566142144)
(-0 0 0.192444659728)
(0 0 0.19418376095)
(-0 0 0.193468050826)
(0 0 0.193953540858)
(-0 0 0.193830981555)
(0 0 0.193933118416)
(-0 0 0.193901870487)
(0 0 0.19392102256)
(-0 0 0.193912775268)
(0 0 0.193916471903)
(-0 0 0.193914512968)
(0 0 0.193915304942)
(-0 0 0.193914877827)
(0 0 0.193915059689)
(-0 0 0.193914969357)
(0 0 0.193915011288)
(-0 0 0.193914991938)
(0 0 0.193915001379)
(-0 0 0.193914997139)
(0 0 0.193914999234)
(-0 0 0.193914998305)
(0 0 0.193914998781)
(-0 0 0.19391499859)
(0 0 0.193914998711)
(0 0 0.193914998684)
(0 0 0.193914998723)
(0 0 0.193914998729)
(0 0 0.19391499875)
(0 0 0.193914998764)
(0 0 0.193914998781)
(0 0 0.193914998797)
(0 0 0.193914998816)
(0 0 0.193914998832)
(0 0 0.193914998843)
(0 0 0.193914998841)
(0 0 0.193914998836)
(0 0 0.193914998794)
(0 0 0.357968269745)
(0 0 0.367129584972)
(0 0 0.290113504186)
(0 0 0.293525476083)
(0 0 0.284927588326)
(0 0 0.287143391832)
(-0 0 0.286138419622)
(-0 0 0.28679105796)
(-0 0 0.286626003115)
(0 0 0.286766276074)
(-0 0 0.286724770191)
(0 0 0.286751172603)
(-0 0 0.286740105526)
(0 0 0.286745160696)
(-0 0 0.286742503651)
(0 0 0.28674357703)
(-0 0 0.286742994642)
(0 0 0.286743240533)
(-0 0 0.286743117361)
(0 0 0.286743174173)
(-0 0 0.286743147858)
(0 0 0.286743160685)
(-0 0 0.286743154933)
(0 0 0.286743157785)
(-0 0 0.286743156528)
(0 0 0.286743157178)
(-0 0 0.286743156923)
(0 0 0.286743157089)
(0 0 0.286743157054)
(0 0 0.28674315711)
(0 0 0.286743157121)
(0 0 0.286743157152)
(0 0 0.286743157171)
(0 0 0.286743157196)
(0 0 0.286743157221)
(0 0 0.286743157248)
(0 0 0.286743157271)
(0 0 0.286743157288)
(0 0 0.286743157285)
(0 0 0.286743157275)
(0 0 0.286743157217)
(0 0 0.420240369792)
(0 0 0.444346485496)
(0 0 0.364026237478)
(0 0 0.36774765666)
(0 0 0.357580303995)
(0 0 0.360039120365)
(-0 0 0.358822300462)
(-0 0 0.359574405357)
(-0 0 0.359379174699)
(-0 0 0.359544092609)
(-0 0 0.359495960451)
(0 0 0.359527258044)
(-0 0 0.35951440541)
(0 0 0.359520384824)
(-0 0 0.359517277872)
(0 0 0.359518539156)
(-0 0 0.35951785469)
(0 0 0.359518142585)
(-0 0 0.359517997598)
(0 0 0.359518064134)
(-0 0 0.359518033193)
(0 0 0.359518048244)
(-0 0 0.359518041494)
(0 0 0.359518044848)
(-0 0 0.359518043377)
(0 0 0.359518044143)
(0 0 0.359518043846)
(0 0 0.359518044044)
(0 0 0.359518044006)
(0 0 0.359518044074)
(0 0 0.359518044089)
(0 0 0.359518044126)
(0 0 0.359518044151)
(0 0 0.359518044183)
(0 0 0.359518044213)
(0 0 0.359518044246)
(0 0 0.359518044275)
(0 0 0.359518044295)
(0 0 0.359518044291)
(0 0 0.359518044278)
(0 0 0.359518044208)
(0 0 0.459578281631)
(0 0 0.49823570458)
(0 0 0.421225240735)
(0 0 0.425631436077)
(0 0 0.414619801967)
(0 0 0.417204950503)
(-0 0 0.415829959234)
(-0 0 0.4166365424)
(-0 0 0.416417042605)
(-0 0 0.416597129378)
(-0 0 0.416544264854)
(0 0 0.416578856575)
(-0 0 0.416564839122)
(0 0 0.416571470154)
(-0 0 0.416568072261)
(0 0 0.416569465475)
(-0 0 0.416568713435)
(0 0 0.416569030012)
(-0 0 0.416568870246)
(0 0 0.416568943303)
(-0 0 0.416568909199)
(0 0 0.41656892574)
(-0 0 0.416568918311)
(0 0 0.416568922005)
(-0 0 0.416568920389)
(0 0 0.416568921236)
(0 0 0.416568920911)
(0 0 0.416568921133)
(0 0 0.416568921093)
(0 0 0.41656892117)
(0 0 0.416568921188)
(0 0 0.416568921231)
(0 0 0.41656892126)
(0 0 0.416568921296)
(0 0 0.416568921331)
(0 0 0.416568921369)
(0 0 0.416568921402)
(0 0 0.416568921424)
(0 0 0.416568921419)
(0 0 0.416568921404)
(0 0 0.416568921326)
(0 0 0.483609234587)
(0 0 0.535110874171)
(0 0 0.465114571028)
(0 0 0.470660290454)
(0 0 0.459370491409)
(0 0 0.462035273708)
(-0 0 0.460541605788)
(-0 0 0.461372917678)
(-0 0 0.46113152011)
(-0 0 0.461320003427)
(-0 0 0.461263267311)
(0 0 0.461300035269)
(-0 0 0.461285215099)
(0 0 0.461292324323)
(-0 0 0.461288737472)
(0 0 0.461290229519)
(-0 0 0.461289432525)
(0 0 0.46128976984)
(-0 0 0.461289599826)
(0 0 0.461289677428)
(-0 0 0.461289641076)
(0 0 0.461289658643)
(-0 0 0.461289650732)
(0 0 0.461289654661)
(-0 0 0.461289652945)
(0 0 0.461289653848)
(0 0 0.461289653506)
(0 0 0.461289653743)
(0 0 0.461289653703)
(0 0 0.461289653787)
(0 0 0.461289653808)
(0 0 0.461289653855)
(0 0 0.461289653888)
(0 0 0.461289653927)
(0 0 0.461289653965)
(0 0 0.461289654006)
(0 0 0.461289654042)
(0 0 0.461289654066)
(0 0 0.461289654061)
(0 0 0.461289654043)
(0 0 0.461289653962)
(0 0 0.49751042349)
(0 0 0.559694656231)
(0 0 0.498496401021)
(0 0 0.505587453925)
(0 0 0.494451714006)
(0 0 0.49718920566)
(-0 0 0.495607663927)
(-0 0 0.496444229501)
(-0 0 0.496181519346)
(-0 0 0.496373479312)
(-0 0 0.496313146783)
(-0 0 0.496351286076)
(-0 0 0.496335865892)
(0 0 0.496343340097)
(-0 0 0.496339629957)
(0 0 0.496341201418)
(-0 0 0.496340374527)
(0 0 0.496340727909)
(-0 0 0.496340550615)
(0 0 0.496340631543)
(-0 0 0.496340593522)
(0 0 0.496340611821)
(-0 0 0.496340603548)
(0 0 0.496340607647)
(-0 0 0.496340605856)
(0 0 0.496340606801)
(0 0 0.496340606447)
(0 0 0.496340606697)
(0 0 0.496340606656)
(0 0 0.496340606746)
(0 0 0.496340606769)
(0 0 0.496340606819)
(0 0 0.496340606854)
(0 0 0.496340606897)
(0 0 0.496340606937)
(0 0 0.496340606981)
(0 0 0.496340607019)
(0 0 0.496340607044)
(0 0 0.496340607038)
(0 0 0.496340607019)
(0 0 0.496340606937)
(0 0 0.504792975635)
(0 0 0.575495190546)
(0 0 0.523651235525)
(0 0 0.532589119855)
(0 0 0.521926942028)
(0 0 0.524750303561)
(-0 0 0.523105927945)
(-0 0 0.523935206569)
(-0 0 0.523651029297)
(-0 0 0.523842852287)
(-0 0 0.523778898024)
(-0 0 0.523817811434)
(-0 0 0.523801899069)
(0 0 0.523809661213)
(0 0 0.523805870419)
(0 0 0.523807509777)
(-0 0 0.523806663231)
(0 0 0.523807029942)
(-0 0 0.523806847362)
(0 0 0.52380693086)
(-0 0 0.523806891545)
(0 0 0.523806910385)
(-0 0 0.523806901828)
(0 0 0.523806906052)
(-0 0 0.523806904204)
(0 0 0.523806905181)
(0 0 0.523806904817)
(0 0 0.523806905077)
(0 0 0.523806905036)
(0 0 0.52380690513)
(0 0 0.523806905155)
(0 0 0.523806905208)
(0 0 0.523806905245)
(0 0 0.52380690529)
(0 0 0.523806905332)
(-0 0 0.523806905377)
(-0 0 0.523806905416)
(0 0 0.523806905442)
(0 0 0.523806905437)
(0 0 0.523806905418)
(0 0 0.523806905335)
(0 0 0.507830245416)
(0 0 0.585098436208)
(0 0 0.542416367364)
(0 0 0.553385431738)
(0 0 0.54342121713)
(0 0 0.546351311759)
(-0 0 0.544664814615)
(-0 0 0.545478984133)
(-0 0 0.545173037858)
(-0 0 0.54536207242)
(-0 0 0.545294347087)
(-0 0 0.545333582879)
(-0 0 0.54531723162)
(0 0 0.545325226513)
(0 0 0.545321383013)
(0 0 0.545323083151)
(0 0 0.545322224069)
(0 0 0.54532260248)
(-0 0 0.545322415998)
(0 0 0.545322501587)
(-0 0 0.545322461229)
(0 0 0.545322480485)
(-0 0 0.545322471692)
(0 0 0.545322476012)
(-0 0 0.545322474118)
(0 0 0.54532247512)
(0 0 0.545322474748)
(0 0 0.545322475016)
(0 0 0.545322474976)
(0 0 0.545322475073)
(0 0 0.5453224751)
(0 0 0.545322475155)
(0 0 0.545322475194)
(0 0 0.54532247524)
(-0 0 0.545322475284)
(-0 0 0.54532247533)
(-0 0 0.545322475369)
(0 0 0.545322475396)
(0 0 0.545322475391)
(0 0 0.545322475371)
(0 0 0.545322475291)
(0 0 0.508222050328)
(0 0 0.590400237441)
(0 0 0.556258686928)
(0 0 0.569334973527)
(0 0 0.560213583956)
(0 0 0.563271566407)
(-0 0 0.561560023482)
(-0 0 0.562354509801)
(-0 0 0.562026662318)
(-0 0 0.562210999807)
(-0 0 0.562139336815)
(-0 0 0.562178551632)
(-0 0 0.562161785785)
(0 0 0.562169971739)
(0 0 0.562166094039)
(0 0 0.562167850121)
(0 0 0.562166983537)
(0 0 0.56216737262)
(-0 0 0.562167183228)
(0 0 0.562167270594)
(-0 0 0.562167229371)
(0 0 0.562167248956)
(-0 0 0.562167239961)
(0 0 0.562167244358)
(-0 0 0.562167242423)
(0 0 0.562167243446)
(0 0 0.562167243068)
(0 0 0.562167243342)
(0 0 0.562167243302)
(0 0 0.562167243402)
(0 0 0.562167243431)
(0 0 0.562167243488)
(0 0 0.562167243528)
(0 0 0.562167243576)
(-0 0 0.56216724362)
(-0 0 0.562167243666)
(-0 0 0.562167243706)
(0 0 0.562167243733)
(0 0 0.562167243729)
(0 0 0.56216724371)
(0 0 0.562167243633)
(0 0 0.50704251391)
(0 0 0.592783719702)
(0 0 0.566340320532)
(0 0 0.581509247595)
(0 0 0.573309943732)
(0 0 0.576513098676)
(-0 0 0.574790313377)
(-0 0 0.575562805471)
(-0 0 0.575213251435)
(-0 0 0.575391581649)
(-0 0 0.575315860302)
(-0 0 0.575354796753)
(-0 0 0.575337627667)
(0 0 0.575345971648)
(0 0 0.575342072103)
(0 0 0.57534388033)
(0 0 0.575343009844)
(0 0 0.575343408866)
(-0 0 0.575343217296)
(0 0 0.57534330622)
(-0 0 0.575343264262)
(0 0 0.575343284115)
(-0 0 0.575343274943)
(0 0 0.575343279401)
(-0 0 0.575343277432)
(0 0 0.575343278472)
(0 0 0.575343278088)
(0 0 0.575343278368)
(0 0 0.575343278328)
(0 0 0.575343278431)
(0 0 0.57534327846)
(0 0 0.575343278519)
(0 0 0.57534327856)
(0 0 0.575343278608)
(-0 0 0.575343278653)
(-0 0 0.5753432787)
(-0 0 0.575343278739)
(0 0 0.575343278766)
(0 0 0.575343278763)
(0 0 0.575343278746)
(0 0 0.575343278673)
(0 0 0.505008104907)
(0 0 0.593252430995)
(0 0 0.573575726508)
(0 0 0.590751730968)
(0 0 0.583500461858)
(0 0 0.586860118719)
(-0 0 0.585136865369)
(-0 0 0.585886649194)
(-0 0 0.58551597572)
(-0 0 0.58568748767)
(-0 0 0.585607668832)
(-0 0 0.585646141455)
(-0 0 0.585628577465)
(0 0 0.585637052284)
(0 0 0.585633139191)
(0 0 0.585634996077)
(0 0 0.585634124255)
(0 0 0.585634532589)
(-0 0 0.585634339395)
(0 0 0.585634429709)
(-0 0 0.585634387121)
(0 0 0.585634407197)
(-0 0 0.585634397867)
(0 0 0.585634402376)
(-0 0 0.585634400375)
(0 0 0.585634401429)
(0 0 0.585634401041)
(0 0 0.585634401325)
(0 0 0.585634401285)
(0 0 0.58563440139)
(0 0 0.58563440142)
(0 0 0.58563440148)
(0 0 0.585634401522)
(0 0 0.585634401571)
(-0 0 0.585634401617)
(-0 0 0.585634401663)
(-0 0 0.585634401702)
(0 0 0.585634401729)
(0 0 0.585634401727)
(0 0 0.585634401712)
(0 0 0.585634401644)
(0 0 0.502592183513)
(0 0 0.592529976836)
(0 0 0.57867994076)
(0 0 0.597724723373)
(0 0 0.591404747667)
(0 0 0.594925498795)
(-0 0 0.593209740629)
(-0 0 0.593937244812)
(-0 0 0.593546445077)
(-0 0 0.593710754679)
(-0 0 0.593626898822)
(-0 0 0.593664784672)
(-0 0 0.593646837098)
(0 0 0.593655419792)
(0 0 0.593651498723)
(0 0 0.593653400682)
(0 0 0.593652529313)
(0 0 0.593652946334)
(-0 0 0.593652751941)
(0 0 0.593652843504)
(-0 0 0.593652800372)
(0 0 0.593652820635)
(-0 0 0.593652811165)
(0 0 0.593652815715)
(-0 0 0.593652813686)
(0 0 0.593652814753)
(0 0 0.59365281436)
(0 0 0.593652814647)
(0 0 0.593652814608)
(0 0 0.593652814715)
(0 0 0.593652814746)
(0 0 0.593652814807)
(0 0 0.59365281485)
(0 0 0.593652814899)
(-0 0 0.593652814945)
(-0 0 0.59365281499)
(-0 0 0.593652815028)
(0 0 0.593652815055)
(0 0 0.593652815056)
(0 0 0.593652815042)
(0 0 0.593652814981)
(0 0 0.500103461243)
(0 0 0.591134451293)
(0 0 0.582208505142)
(0 0 0.60294645095)
(0 0 0.597507347396)
(0 0 0.601187061302)
(-0 0 0.599484183044)
(-0 0 0.600190665726)
(-0 0 0.599781123516)
(-0 0 0.599938216905)
(-0 0 0.599850490649)
(-0 0 0.599887722259)
(-0 0 0.599869408816)
(0 0 0.599878079687)
(0 0 0.599874154353)
(0 0 0.599876097483)
(0 0 0.59987522775)
(0 0 0.599875652768)
(-0 0 0.599875457507)
(0 0 0.599875550185)
(-0 0 0.599875506587)
(0 0 0.599875527007)
(-0 0 0.599875517413)
(0 0 0.599875521996)
(-0 0 0.599875519943)
(0 0 0.59987552102)
(0 0 0.599875520624)
(0 0 0.599875520914)
(0 0 0.599875520874)
(0 0 0.599875520983)
(0 0 0.599875521015)
(0 0 0.599875521077)
(0 0 0.599875521121)
(-0 0 0.59987552117)
(-0 0 0.599875521216)
(-0 0 0.599875521261)
(-0 0 0.599875521298)
(0 0 0.599875521324)
(0 0 0.599875521327)
(0 0 0.599875521316)
(0 0 0.599875521261)
(0 0 0.49773984407)
(0 0 0.589433817563)
(0 0 0.584589977486)
(0 0 0.606820372388)
(0 0 0.602185553344)
(0 0 0.606015850485)
(-0 0 0.604328916844)
(-0 0 0.6050162466)
(-0 0 0.604589704887)
(-0 0 0.604739890346)
(-0 0 0.604648565295)
(-0 0 0.604685124686)
(-0 0 0.60466647117)
(0 0 0.604675213182)
(0 0 0.604671285992)
(0 0 0.604673265975)
(0 0 0.604672398572)
(0 0 0.604672830808)
(-0 0 0.60467263493)
(0 0 0.604672728593)
(-0 0 0.604672684599)
(0 0 0.60467270515)
(-0 0 0.604672695447)
(0 0 0.604672700059)
(-0 0 0.604672697984)
(0 0 0.604672699069)
(0 0 0.60467269867)
(0 0 0.604672698963)
(0 0 0.604672698923)
(0 0 0.604672699033)
(0 0 0.604672699066)
(0 0 0.604672699129)
(0 0 0.604672699173)
(-0 0 0.604672699223)
(-0 0 0.604672699267)
(-0 0 0.604672699312)
(-0 0 0.604672699348)
(0 0 0.604672699374)
(0 0 0.604672699378)
(0 0 0.60467269937)
(0 0 0.604672699323)
(0 0 0.495625387743)
(0 0 0.5876869002)
(0 0 0.586152014167)
(0 0 0.609658219303)
(0 0 0.605731099645)
(0 0 0.609698077537)
(-0 0 0.608028115869)
(-0 0 0.608698615207)
(-0 0 0.608257136039)
(-0 0 0.608401000231)
(-0 0 0.60830644653)
(-0 0 0.608342359502)
(-0 0 0.608323400301)
(0 0 0.608332198656)
(0 0 0.608328271099)
(0 0 0.608330283173)
(0 0 0.608329418393)
(0 0 0.60832985696)
(-0 0 0.608329660659)
(0 0 0.608329755172)
(-0 0 0.608329710846)
(0 0 0.608329731507)
(-0 0 0.608329721711)
(0 0 0.608329726345)
(-0 0 0.608329724252)
(0 0 0.608329725344)
(0 0 0.608329724941)
(0 0 0.608329725237)
(0 0 0.608329725197)
(0 0 0.608329725308)
(0 0 0.608329725342)
(0 0 0.608329725405)
(0 0 0.60832972545)
(-0 0 0.6083297255)
(-0 0 0.608329725543)
(-0 0 0.608329725587)
(-0 0 0.608329725622)
(0 0 0.608329725648)
(0 0 0.608329725654)
(0 0 0.608329725649)
(0 0 0.60832972561)
(0 0 0.493835629788)
(0 0 0.586073532409)
(0 0 0.587141981841)
(0 0 0.61169797142)
(0 0 0.608366970084)
(0 0 0.612452045701)
(-0 0 0.610798346329)
(-0 0 0.6114546767)
(-0 0 0.611000596334)
(-0 0 0.6111389623)
(-0 0 0.611041638441)
(-0 0 0.611076968741)
(-0 0 0.611057746533)
(0 0 0.611066588329)
(0 0 0.611062661226)
(0 0 0.611064700204)
(0 0 0.611063838012)
(0 0 0.611064281922)
(-0 0 0.611064085341)
(0 0 0.611064180561)
(-0 0 0.611064135968)
(0 0 0.611064156715)
(-0 0 0.611064146842)
(0 0 0.611064151495)
(-0 0 0.611064149386)
(0 0 0.611064150484)
(0 0 0.611064150079)
(0 0 0.611064150376)
(0 0 0.611064150337)
(0 0 0.611064150449)
(0 0 0.611064150483)
(0 0 0.611064150547)
(0 0 0.611064150592)
(-0 0 0.611064150641)
(-0 0 0.611064150684)
(-0 0 0.611064150726)
(-0 0 0.61106415076)
(0 0 0.611064150786)
(0 0 0.611064150794)
(0 0 0.611064150793)
(0 0 0.611064150763)
(0 0 0.492414884638)
(0 0 0.584716518325)
(0 0 0.587742957166)
(0 0 0.613117704713)
(0 0 0.610260267948)
(0 0 0.614441059871)
(-0 0 0.612801487193)
(-0 0 0.613446561353)
(-0 0 0.612982442712)
(-0 0 0.61311632817)
(-0 0 0.613016768091)
(-0 0 0.613051611255)
(-0 0 0.613032176132)
(0 0 0.613041050037)
(0 0 0.613037123728)
(0 0 0.613039184051)
(0 0 0.613038324144)
(0 0 0.613038772316)
(0 0 0.613038575558)
(0 0 0.613038671336)
(-0 0 0.613038626537)
(0 0 0.613038647351)
(-0 0 0.613038637418)
(0 0 0.613038642084)
(-0 0 0.613038639963)
(0 0 0.613038641065)
(0 0 0.613038640658)
(0 0 0.613038640957)
(0 0 0.613038640918)
(0 0 0.61303864103)
(0 0 0.613038641065)
(0 0 0.613038641129)
(0 0 0.613038641175)
(-0 0 0.613038641224)
(-0 0 0.613038641266)
(-0 0 0.613038641306)
(-0 0 0.613038641339)
(0 0 0.613038641364)
(0 0 0.613038641375)
(0 0 0.613038641377)
(0 0 0.613038641356)
(0 0 0.491387937631)
(0 0 0.583697376591)
(0 0 0.588085843456)
(0 0 0.614046038738)
(0 0 0.6115318761)
(0 0 0.615783085111)
(-0 0 0.614154393959)
(-0 0 0.614791306146)
(-0 0 0.61431988971)
(-0 0 0.614450464918)
(-0 0 0.614349263109)
(-0 0 0.614383739916)
(-0 0 0.614364148105)
(0 0 0.614373044034)
(0 0 0.614369118519)
(0 0 0.614371194316)
(0 0 0.614370336189)
(0 0 0.614370787464)
(0 0 0.614370590601)
(0 0 0.614370686783)
(-0 0 0.614370641837)
(0 0 0.614370662699)
(-0 0 0.614370652722)
(0 0 0.614370657397)
(-0 0 0.614370655268)
(0 0 0.614370656373)
(0 0 0.614370655965)
(0 0 0.614370656265)
(0 0 0.614370656225)
(0 0 0.614370656339)
(0 0 0.614370656373)
(0 0 0.614370656438)
(0 0 0.614370656484)
(-0 0 0.614370656533)
(-0 0 0.614370656574)
(-0 0 0.614370656613)
(-0 0 0.614370656644)
(0 0 0.614370656669)
(0 0 0.614370656682)
(0 0 0.614370656687)
(0 0 0.614370656676)
(0 0 0.490767780011)
(0 0 0.583067292121)
(0 0 0.588258193222)
(0 0 0.6145697345)
(0 0 0.612263454577)
(0 0 0.616557724939)
(-0 0 0.614935878552)
(-0 0 0.615567846029)
(-0 0 0.615091999734)
(-0 0 0.615220544647)
(-0 0 0.615118339831)
(-0 0 0.615152589396)
(-0 0 0.61513290169)
(0 0 0.615141810466)
(0 0 0.615137885516)
(0 0 0.61513997069)
(0 0 0.61513911369)
(0 0 0.615139566849)
(0 0 0.615139369932)
(0 0 0.615139466359)
(-0 0 0.615139421325)
(0 0 0.615139442215)
(-0 0 0.615139432213)
(0 0 0.615139436893)
(-0 0 0.615139434759)
(0 0 0.615139435866)
(0 0 0.615139435456)
(0 0 0.615139435757)
(0 0 0.615139435718)
(0 0 0.615139435831)
(0 0 0.615139435866)
(0 0 0.615139435932)
(-0 0 0.615139435977)
(-0 0 0.615139436026)
(-0 0 0.615139436066)
(-0 0 0.615139436103)
(-0 0 0.615139436134)
(0 0 0.615139436157)
(0 0 0.615139436173)
(0 0 0.615139436182)
(0 0 0.615139436179)
(0 0 0.490560469939)
(-0 0 0.582854288391)
(-0 0 0.588310197494)
(0 0 0.614738849252)
(0 0 0.612502173581)
(0 0 0.616810931379)
(-0 0 0.615191419072)
(0 0 0.615821730519)
(0 0 0.615344399039)
(-0 0 0.615472259794)
(-0 0 0.61536971763)
(0 0 0.6154038902)
(0 0 0.615384170208)
(0 0 0.615393083204)
(0 0 0.615389158459)
(0 0 0.615391246775)
(0 0 0.615390390159)
(0 0 0.615390843951)
(0 0 0.615390647018)
(0 0 0.615390743526)
(0 0 0.615390698463)
(0 0 0.615390719362)
(0 0 0.615390709351)
(0 0 0.615390714034)
(0 0 0.615390711898)
(0 0 0.615390713005)
(0 0 0.615390712595)
(0 0 0.615390712896)
(0 0 0.615390712857)
(0 0 0.615390712971)
(0 0 0.615390713006)
(0 0 0.615390713072)
(-0 0 0.615390713117)
(-0 0 0.615390713165)
(-0 0 0.615390713204)
(-0 0 0.61539071324)
(-0 0 0.615390713269)
(0 0 0.615390713292)
(0 0 0.61539071331)
(0 0 0.615390713322)
(0 0 0.615390713329)
(-0 0 0.490767779712)
(-0 0 0.583067291757)
(-0 0 0.58825819323)
(-0 0 0.614569734625)
(-0 0 0.612263454588)
(-0 0 0.616557724869)
(0 0 0.614935878551)
(0 0 0.615567846065)
(0 0 0.615091999735)
(0 0 0.615220544632)
(0 0 0.615118339834)
(0 0 0.615152589402)
(0 0 0.615132901686)
(-0 0 0.615141810462)
(-0 0 0.615137885517)
(-0 0 0.615139970692)
(-0 0 0.615139113689)
(-0 0 0.61513956685)
(-0 0 0.615139369933)
(-0 0 0.615139466359)
(0 0 0.615139421325)
(-0 0 0.615139442215)
(0 0 0.615139432212)
(-0 0 0.615139436893)
(0 0 0.61513943476)
(-0 0 0.615139435866)
(0 0 0.615139435456)
(0 0 0.615139435757)
(0 0 0.615139435718)
(0 0 0.615139435832)
(0 0 0.615139435868)
(0 0 0.615139435933)
(-0 0 0.615139435979)
(-0 0 0.615139436026)
(-0 0 0.615139436064)
(-0 0 0.615139436098)
(-0 0 0.615139436125)
(0 0 0.615139436148)
(0 0 0.615139436169)
(0 0 0.615139436184)
(0 0 0.615139436201)
(-0 0 0.49138793702)
(-0 0 0.583697375867)
(-0 0 0.588085843488)
(-0 0 0.61404603898)
(-0 0 0.611531876114)
(-0 0 0.615783084977)
(0 0 0.614154393959)
(0 0 0.614791306214)
(0 0 0.614319889712)
(0 0 0.614450464891)
(0 0 0.614349263115)
(0 0 0.614383739926)
(0 0 0.614364148097)
(-0 0 0.614373044027)
(-0 0 0.614369118522)
(-0 0 0.614371194319)
(-0 0 0.614370336189)
(-0 0 0.614370787464)
(-0 0 0.614370590602)
(-0 0 0.614370686783)
(0 0 0.614370641837)
(-0 0 0.614370662698)
(0 0 0.614370652722)
(-0 0 0.614370657397)
(0 0 0.614370655269)
(-0 0 0.614370656373)
(-0 0 0.614370655965)
(-0 0 0.614370656265)
(0 0 0.614370656225)
(0 0 0.61437065634)
(0 0 0.614370656376)
(0 0 0.614370656441)
(-0 0 0.614370656486)
(-0 0 0.614370656533)
(-0 0 0.61437065657)
(-0 0 0.614370656602)
(-0 0 0.614370656628)
(0 0 0.61437065665)
(0 0 0.614370656673)
(0 0 0.614370656692)
(0 0 0.614370656717)
(-0 0 0.492414883696)
(-0 0 0.58471651725)
(-0 0 0.587742957252)
(-0 0 0.613117705057)
(-0 0 0.610260267952)
(-0 0 0.614441059684)
(0 0 0.612801487202)
(0 0 0.613446561447)
(0 0 0.612982442711)
(0 0 0.613116328135)
(0 0 0.6130167681)
(0 0 0.613051611268)
(0 0 0.61303217612)
(-0 0 0.613041050027)
(-0 0 0.613037123732)
(-0 0 0.613039184054)
(-0 0 0.613038324144)
(-0 0 0.613038772318)
(-0 0 0.61303857556)
(-0 0 0.613038671336)
(0 0 0.613038626537)
(-0 0 0.613038647351)
(0 0 0.613038637418)
(-0 0 0.613038642084)
(0 0 0.613038639965)
(-0 0 0.613038641066)
(-0 0 0.613038640658)
(-0 0 0.613038640957)
(-0 0 0.613038640918)
(0 0 0.613038641032)
(0 0 0.613038641068)
(0 0 0.613038641134)
(-0 0 0.613038641178)
(-0 0 0.613038641225)
(-0 0 0.61303864126)
(-0 0 0.61303864129)
(-0 0 0.613038641315)
(0 0 0.613038641337)
(0 0 0.613038641362)
(0 0 0.613038641383)
(0 0 0.613038641418)
(-0 0 0.49383562849)
(-0 0 0.586073530997)
(-0 0 0.587141982022)
(-0 0 0.611697971842)
(-0 0 0.608366970059)
(-0 0 0.612452045475)
(0 0 0.610798346352)
(0 0 0.611454676812)
(0 0 0.611000596329)
(0 0 0.61113896226)
(0 0 0.611041638453)
(0 0 0.611076968755)
(0 0 0.611057746519)
(-0 0 0.611066588318)
(-0 0 0.61106266123)
(-0 0 0.611064700208)
(-0 0 0.611063838011)
(-0 0 0.611064281925)
(0 0 0.611064085343)
(-0 0 0.611064180561)
(0 0 0.611064135967)
(-0 0 0.611064156715)
(0 0 0.611064146842)
(-0 0 0.611064151495)
(0 0 0.611064149388)
(-0 0 0.611064150484)
(-0 0 0.611064150079)
(-0 0 0.611064150376)
(-0 0 0.611064150337)
(-0 0 0.611064150451)
(0 0 0.611064150487)
(-0 0 0.611064150553)
(-0 0 0.611064150597)
(-0 0 0.611064150642)
(-0 0 0.611064150676)
(-0 0 0.611064150704)
(-0 0 0.611064150728)
(0 0 0.611064150749)
(0 0 0.611064150776)
(0 0 0.611064150801)
(0 0 0.611064150845)
(-0 0 0.495625386065)
(-0 0 0.587686898476)
(-0 0 0.586152014488)
(-0 0 0.609658219773)
(-0 0 0.60573109957)
(-0 0 0.609698077293)
(0 0 0.608028115915)
(0 0 0.608698615324)
(0 0 0.608257136029)
(0 0 0.608401000192)
(0 0 0.608306446545)
(0 0 0.608342359514)
(0 0 0.608323400284)
(-0 0 0.608332198645)
(-0 0 0.608328271104)
(-0 0 0.608330283176)
(-0 0 0.608329418393)
(-0 0 0.608329856963)
(0 0 0.608329660662)
(-0 0 0.608329755172)
(0 0 0.608329710846)
(-0 0 0.608329731506)
(0 0 0.60832972171)
(-0 0 0.608329726345)
(0 0 0.608329724253)
(-0 0 0.608329725345)
(-0 0 0.608329724942)
(-0 0 0.608329725237)
(-0 0 0.608329725198)
(-0 0 0.608329725311)
(-0 0 0.608329725347)
(-0 0 0.608329725413)
(-0 0 0.608329725456)
(-0 0 0.608329725501)
(-0 0 0.608329725534)
(-0 0 0.60832972556)
(-0 0 0.608329725583)
(0 0 0.608329725603)
(0 0 0.608329725632)
(0 0 0.608329725659)
(0 0 0.608329725712)
(-0 0 0.497739841999)
(-0 0 0.589433815563)
(-0 0 0.584589977992)
(-0 0 0.606820372872)
(-0 0 0.602185553201)
(-0 0 0.606015850243)
(0 0 0.604328916918)
(0 0 0.605016246712)
(0 0 0.604589704869)
(0 0 0.604739890314)
(0 0 0.604648565313)
(0 0 0.604685124693)
(0 0 0.604666471151)
(-0 0 0.604675213171)
(-0 0 0.604671285997)
(-0 0 0.604673265978)
(-0 0 0.604672398573)
(-0 0 0.604672830812)
(0 0 0.604672634933)
(-0 0 0.604672728593)
(0 0 0.604672684598)
(-0 0 0.60467270515)
(0 0 0.604672695446)
(-0 0 0.604672700059)
(0 0 0.604672697986)
(-0 0 0.60467269907)
(-0 0 0.60467269867)
(-0 0 0.604672698963)
(-0 0 0.604672698924)
(-0 0 0.604672699036)
(-0 0 0.604672699072)
(-0 0 0.604672699137)
(-0 0 0.604672699181)
(-0 0 0.604672699225)
(-0 0 0.604672699256)
(-0 0 0.60467269928)
(-0 0 0.604672699302)
(0 0 0.604672699322)
(0 0 0.604672699352)
(0 0 0.604672699382)
(0 0 0.604672699443)
(-0 0 0.500103458779)
(-0 0 0.591134449067)
(-0 0 0.582208505869)
(-0 0 0.60294645141)
(-0 0 0.597507347171)
(-0 0 0.601187061085)
(0 0 0.59948418315)
(0 0 0.600190665821)
(0 0 0.59978112349)
(0 0 0.599938216885)
(0 0 0.599850490669)
(0 0 0.59988772226)
(0 0 0.599869408796)
(-0 0 0.599878079678)
(-0 0 0.599874154357)
(-0 0 0.599876097485)
(-0 0 0.599875227752)
(-0 0 0.599875652773)
(0 0 0.599875457509)
(-0 0 0.599875550185)
(0 0 0.599875506586)
(-0 0 0.599875527006)
(0 0 0.599875517412)
(-0 0 0.599875521997)
(0 0 0.599875519945)
(-0 0 0.599875521021)
(-0 0 0.599875520624)
(-0 0 0.599875520914)
(-0 0 0.599875520875)
(-0 0 0.599875520986)
(-0 0 0.599875521022)
(-0 0 0.599875521087)
(-0 0 0.59987552113)
(-0 0 0.599875521173)
(-0 0 0.599875521203)
(-0 0 0.599875521225)
(-0 0 0.599875521245)
(0 0 0.599875521265)
(0 0 0.599875521296)
(0 0 0.599875521329)
(0 0 0.599875521397)
(-0 0 0.502592180679)
(-0 0 0.592529974447)
(-0 0 0.578679941731)
(-0 0 0.597724723772)
(-0 0 0.591404747352)
(-0 0 0.594925498623)
(0 0 0.593209740767)
(0 0 0.593937244881)
(0 0 0.593546445045)
(0 0 0.593710754674)
(0 0 0.593626898842)
(0 0 0.593664784665)
(0 0 0.593646837078)
(-0 0 0.593655419786)
(-0 0 0.593651498726)
(-0 0 0.593653400684)
(-0 0 0.593652529316)
(-0 0 0.593652946339)
(0 0 0.593652751944)
(-0 0 0.593652843504)
(0 0 0.593652800371)
(-0 0 0.593652820634)
(0 0 0.593652811164)
(-0 0 0.593652815715)
(0 0 0.593652813688)
(-0 0 0.593652814754)
(-0 0 0.593652814361)
(-0 0 0.593652814647)
(-0 0 0.593652814608)
(-0 0 0.593652814718)
(-0 0 0.593652814754)
(-0 0 0.593652814818)
(-0 0 0.59365281486)
(-0 0 0.593652814902)
(-0 0 0.593652814931)
(-0 0 0.593652814952)
(-0 0 0.59365281497)
(0 0 0.593652814989)
(0 0 0.593652815022)
(0 0 0.593652815057)
(0 0 0.593652815131)
(-0 0 0.505008101747)
(-0 0 0.593252428518)
(-0 0 0.573575727727)
(-0 0 0.590751731266)
(-0 0 0.583500461457)
(-0 0 0.586860118611)
(0 0 0.585136865534)
(0 0 0.58588664923)
(0 0 0.585515975686)
(0 0 0.585687487684)
(0 0 0.58560766885)
(0 0 0.585646141439)
(0 0 0.585628577446)
(-0 0 0.58563705228)
(-0 0 0.585633139192)
(-0 0 0.585634996078)
(-0 0 0.585634124259)
(-0 0 0.585634532595)
(0 0 0.585634339397)
(-0 0 0.585634429709)
(0 0 0.58563438712)
(-0 0 0.585634407195)
(0 0 0.585634397866)
(-0 0 0.585634402376)
(0 0 0.585634400376)
(-0 0 0.585634401431)
(-0 0 0.585634401042)
(-0 0 0.585634401324)
(-0 0 0.585634401285)
(-0 0 0.585634401393)
(-0 0 0.585634401429)
(-0 0 0.585634401492)
(-0 0 0.585634401533)
(-0 0 0.585634401574)
(-0 0 0.585634401602)
(-0 0 0.585634401622)
(-0 0 0.585634401639)
(0 0 0.585634401657)
(0 0 0.58563440169)
(0 0 0.585634401727)
(0 0 0.585634401808)
(-0 0 0.507042510498)
(-0 0 0.592783717224)
(-0 0 0.566340321984)
(-0 0 0.581509247762)
(-0 0 0.573309943258)
(-0 0 0.576513098643)
(0 0 0.57479031356)
(0 0 0.575562805469)
(0 0 0.575213251402)
(0 0 0.575391581681)
(0 0 0.575315860316)
(0 0 0.57535479673)
(0 0 0.575337627651)
(-0 0 0.575345971646)
(-0 0 0.575342072102)
(-0 0 0.575343880331)
(-0 0 0.57534300985)
(-0 0 0.575343408872)
(0 0 0.575343217298)
(-0 0 0.57534330622)
(0 0 0.575343264261)
(-0 0 0.575343284114)
(0 0 0.575343274942)
(-0 0 0.575343279402)
(0 0 0.575343277433)
(-0 0 0.575343278474)
(-0 0 0.575343278089)
(-0 0 0.575343278368)
(-0 0 0.575343278328)
(-0 0 0.575343278434)
(-0 0 0.575343278469)
(-0 0 0.575343278531)
(-0 0 0.575343278572)
(-0 0 0.575343278611)
(-0 0 0.575343278638)
(-0 0 0.575343278656)
(-0 0 0.575343278672)
(0 0 0.575343278689)
(0 0 0.575343278724)
(0 0 0.575343278761)
(0 0 0.575343278847)
(-0 0 0.508222046757)
(-0 0 0.590400235051)
(-0 0 0.556258688574)
(-0 0 0.569334973537)
(-0 0 0.560213583432)
(-0 0 0.563271566457)
(0 0 0.561560023671)
(0 0 0.562354509763)
(0 0 0.562026662292)
(0 0 0.562210999855)
(0 0 0.562139336823)
(0 0 0.562178551602)
(0 0 0.562161785772)
(-0 0 0.562169971739)
(-0 0 0.562166094036)
(-0 0 0.562167850121)
(-0 0 0.562166983545)
(-0 0 0.562167372627)
(0 0 0.56216718323)
(-0 0 0.562167270594)
(0 0 0.56216722937)
(-0 0 0.562167248954)
(0 0 0.56216723996)
(-0 0 0.562167244358)
(0 0 0.562167242425)
(-0 0 0.562167243448)
(-0 0 0.562167243069)
(-0 0 0.562167243342)
(-0 0 0.562167243303)
(-0 0 0.562167243406)
(-0 0 0.56216724344)
(-0 0 0.562167243501)
(-0 0 0.56216724354)
(-0 0 0.562167243579)
(-0 0 0.562167243604)
(-0 0 0.562167243621)
(-0 0 0.562167243636)
(0 0 0.562167243652)
(0 0 0.562167243687)
(0 0 0.562167243725)
(0 0 0.562167243815)
(-0 0 0.507830241798)
(-0 0 0.585098433996)
(-0 0 0.542416369144)
(-0 0 0.553385431577)
(-0 0 0.543421216586)
(-0 0 0.54635131189)
(0 0 0.544664814794)
(0 0 0.545478984063)
(0 0 0.545173037844)
(0 0 0.54536207248)
(0 0 0.545294347087)
(0 0 0.545333582845)
(0 0 0.545317231611)
(-0 0 0.545325226514)
(-0 0 0.545321383009)
(-0 0 0.545323083152)
(-0 0 0.545322224077)
(-0 0 0.545322602486)
(0 0 0.545322415999)
(-0 0 0.545322501586)
(0 0 0.545322461228)
(-0 0 0.545322480483)
(0 0 0.545322471691)
(-0 0 0.545322476013)
(0 0 0.545322474119)
(-0 0 0.545322475122)
(-0 0 0.545322474749)
(-0 0 0.545322475016)
(-0 0 0.545322474976)
(-0 0 0.545322475077)
(-0 0 0.545322475109)
(-0 0 0.545322475168)
(-0 0 0.545322475207)
(-0 0 0.545322475244)
(-0 0 0.545322475268)
(-0 0 0.545322475284)
(-0 0 0.545322475297)
(-0 0 0.545322475313)
(0 0 0.545322475348)
(0 0 0.545322475386)
(0 0 0.545322475479)
(-0 0 0.504792972094)
(-0 0 0.575495188593)
(-0 0 0.523651237365)
(-0 0 0.532589119521)
(-0 0 0.521926941502)
(-0 0 0.524750303765)
(0 0 0.523105928099)
(0 0 0.523935206475)
(0 0 0.523651029301)