/*--------------------------------*- C++ -*----------------------------------*\
| =========                 |                                                 |
| \\      /  F ield         | OpenFOAM: The Open Source CFD Toolbox           |
|  \\    /   O peration     | Version:  2112                                  |
|   \\  /    A nd           | Website:  www.openfoam.com                      |
|    \\/     M anipulation  |                                                 |
\*---------------------------------------------------------------------------*/
FoamFile
{
    version     2.0;
    format      ascii;
    arch        "LSB;label=32;scalar=64";
    class       volVectorField;
    location    "0.6";
    object      flux;
}
// * * * * * * * * * * * * * * * * * * * * * * * * * * * * * * * * * * * * * //

dimensions      [0 1 -1 1 0 0 0];

internalField   nonuniform List<vector> 
512
(
(0.0468995094764 -24.1495362342 0)
(0.125779442718 -23.766868008 0)
(0.16480218507 -23.1233413498 0)
(0.151936599521 -22.4224773365 0)
(0.0912716600681 -21.8839064971 0)
(0.000399366102499 -21.6771306028 0)
(-0.0964377979713 -21.8776585057 0)
(-0.175794735378 -22.4573137109 0)
(-0.219607690703 -23.3017130618 0)
(-0.217558584575 -24.2370088241 0)
(-0.169837283345 -25.0649193813 0)
(-0.088704362237 -25.6123086704 0)
(0.00557002168335 -25.7810083405 0)
(0.093411168335 -25.564403226 0)
(0.162244195593 -25.0240776223 0)
(0.20606845772 -24.2538023468 0)
(0.220030029234 -23.3604525384 0)
(0.195596867346 -22.4742188878 0)
(0.12216836691 -21.7710394587 0)
(-0.00415501973947 -21.470294797 0)
(-0.170588057601 -21.7841101367 0)
(-0.345666102578 -22.8305804989 0)
(-0.491053285785 -24.5642081909 0)
(-0.579975157754 -26.7871824255 0)
(-0.606557800582 -29.2351383294 0)
(-0.581207358688 -31.6655829272 0)
(-0.520351453368 -33.9025300047 0)
(-0.438693548948 -35.8387812055 0)
(-0.346295480674 -37.4174368546 0)
(-0.248977869809 -38.6115957207 0)
(-0.149743254059 -39.410216735 0)
(-0.0499452980961 -39.8098295024 0)
(0.144434603627 -24.2438955219 0)
(0.387317999471 -23.8307384398 0)
(0.507393150681 -23.1362533338 0)
(0.467780826862 -22.3804215507 0)
(0.281401706761 -21.7993573288 0)
(0.00272462958861 -21.573568021 0)
(-0.293653756061 -21.7810003643 0)
(-0.536232542677 -22.3891331109 0)
(-0.670239865885 -23.2768101261 0)
(-0.664044575164 -24.2614832189 0)
(-0.517812639806 -25.1324796497 0)
(-0.269340117374 -25.7041907321 0)
(0.0183827005188 -25.8742979319 0)
(0.285054190748 -25.6420297571 0)
(0.493056243981 -25.0779801245 0)
(0.62574408425 -24.2806959604 0)
(0.669761700308 -23.354504884 0)
(0.599109672471 -22.423998016 0)
(0.379793678452 -21.6657012195 0)
(-0.00238031922635 -21.3116794204 0)
(-0.509554793315 -21.5957595588 0)
(-1.04438292454 -22.6534326696 0)
(-1.48724767754 -24.4363816222 0)
(-1.75548991148 -26.7253513765 0)
(-1.83264245026 -29.2338637205 0)
(-1.75248847898 -31.7082582429 0)
(-1.56624768577 -33.9719719714 0)
(-1.31875987599 -35.9224243708 0)
(-1.04011177696 -37.5077863987 0)
(-0.747412070392 -38.7046936599 0)
(-0.449373636752 -39.5041898951 0)
(-0.149861085582 -39.9039692199 0)
(0.253478050568 -24.4402375889 0)
(0.679600536779 -23.9636223524 0)
(0.889960629625 -23.163098601 0)
(0.820384602032 -22.293184856 0)
(0.494698424882 -21.6243893269 0)
(0.00957784833702 -21.3599970378 0)
(-0.504220342931 -21.5823081449 0)
(-0.923699616247 -22.2490691412 0)
(-1.15578274469 -23.2254930364 0)
(-1.14539334638 -24.312026823 0)
(-0.891191039945 -25.2723121319 0)
(-0.459613503365 -25.8937035692 0)
(0.0366505091762 -26.0651660651 0)
(0.491570072036 -25.7993206136 0)
(0.842911093963 -25.186628971 0)
(1.06780607801 -24.3359636029 0)
(1.14837900145 -23.345490543 0)
(1.03999869957 -22.3262913529 0)
(0.678327664694 -21.4545893392 0)
(0.030815810608 -20.9885887258 0)
(-0.841464682202 -21.2088512241 0)
(-1.76597713429 -22.2896370182 0)
(-2.52701263922 -24.1765913726 0)
(-2.97871620689 -26.6030812703 0)
(-3.0980112338 -29.235498909 0)
(-2.95026148414 -31.797937953 0)
(-2.6274345173 -34.1140296206 0)
(-2.20660076258 -36.0916168447 0)
(-1.73743012523 -37.6895154048 0)
(-1.24717961801 -38.8914067648 0)
(-0.749381034073 -39.6923630871 0)
(-0.249834960489 -40.0923417496 0)
(0.382742221886 -24.7544459282 0)
(1.02588749343 -24.1761840134 0)
(1.34261189889 -23.2059106863 0)
(1.23713546393 -22.1542051279 0)
(0.747995615859 -21.3467358789 0)
(0.0237652205755 -21.0230746101 0)
(-0.738189807751 -21.2706741735 0)
(-1.35782498839 -22.0296107942 0)
(-1.70171870678 -23.1445128214 0)
(-1.68745412294 -24.3918199608 0)
(-1.30865101292 -25.4943583208 0)
(-0.665767083966 -26.1929693375 0)
(0.0655741783248 -26.3623888739 0)
(0.72432273782 -26.0400868023 0)
(1.22473474935 -25.3512548747 0)
(1.54631329823 -24.4223771682 0)
(1.67459782528 -23.3395600658 0)
(1.54456027437 -22.1873265409 0)
(1.04864499199 -21.1373979988 0)
(0.120488738327 -20.4890348355 0)
(-1.1600789395 -20.6017071618 0)
(-2.52825299879 -21.7190280843 0)
(-3.6439698036 -23.7765199966 0)
(-4.28494367968 -26.4238398499 0)
(-4.43007079159 -29.2490761212 0)
(-4.19175383479 -31.9436093369 0)
(-3.71308713161 -34.3350863031 0)
(-3.10650276809 -36.3500810905 0)
(-2.44000673704 -37.9645913112 0)
(-1.74883591154 -39.1727011043 0)
(-1.04984112913 -39.9751353423 0)
(-0.349850416843 -40.3750742452 0)
(0.542609007979 -25.2119719316 0)
(1.45386815774 -24.4854778961 0)
(1.90095007235 -23.2677287347 0)
(1.74997200573 -21.9527492581 0)
(1.06026368379 -20.9465827166 0)
(0.0476087010043 -20.5416871635 0)
(-1.00748843497 -20.8294177126 0)
(-1.86061894016 -21.7192240356 0)
(-2.33688732801 -23.0283432181 0)
(-2.32031609608 -24.5055468237 0)
(-1.7917657283 -25.8149355418 0)
(-0.893628779906 -26.6218669176 0)
(0.113091776772 -26.7796366589 0)
(0.997137071624 -26.3693191531 0)
(1.65176591102 -25.5724486212 0)
(2.07365348246 -24.5435452126 0)
(2.2659043151 -23.3469644405 0)
(2.14107973306 -22.0184822141 0)
(1.5274735174 -20.7152436115 0)
(0.298661229114 -19.7944089739 0)
(-1.45646130662 -19.738382672 0)
(-3.35338355172 -20.9081954547 0)
(-4.87941852201 -23.2236901191 0)
(-5.71499426917 -26.1947314837 0)
(-5.8578959773 -29.2898841798 0)
(-5.49326657508 -32.1595643225 0)
(-4.83067039406 -34.6447575157 0)
(-4.02135326665 -36.7031402046 0)
(-3.14874013216 -38.3357397228 0)
(-2.25245163356 -39.5498865646 0)
(-1.35056760452 -40.3530061235 0)
(-0.449804411952 -40.7522591303 0)
(0.745989239658 -25.8499205392 0)
(1.9980090919 -24.9163660023 0)
(2.60897621785 -23.3525428502 0)
(2.39770847297 -21.6727185517 0)
(1.45352666319 -20.394612409 0)
(0.0823477225666 -19.8855302088 0)
(-1.32695824383 -20.235902331 0)
(-2.45728774115 -21.302124157 0)
(-3.09488010082 -22.8681223079 0)
(-3.08075028478 -24.6590339882 0)
(-2.36681105985 -26.2587477174 0)
(-1.1481176425 -27.2104658499 0)
(0.191848060561 -27.3360824191 0)
(1.32791675667 -26.792108962 0)
(2.13762171962 -25.8482962671 0)
(2.65905538859 -24.7029953071 0)
(2.93712932448 -23.3834216539 0)
(2.86042068886 -21.8391227074 0)
(2.1606816121 -20.1930162507 0)
(0.608919208055 -18.8788679424 0)
(-1.71697217991 -18.5636813172 0)
(-4.27090672232 -19.8058658596 0)
(-6.28723781806 -22.5017833301 0)
(-7.31804071002 -25.9293267375 0)
(-7.41248721103 -29.3817421799 0)
(-6.86919050277 -32.466294436 0)
(-5.98487507267 -35.0557665158 0)
(-4.95199387161 -37.1572652442 0)
(-3.86337991703 -38.8061234062 0)
(-2.75746911189 -40.0244478198 0)
(-1.65102741198 -40.8264568207 0)
(-0.549476920274 -41.2238494562 0)
(1.00938627641 -26.7201123006 0)
(2.70255700224 -25.503665956 0)
(3.52277379766 -23.4651015958 0)
(3.22893722631 -21.2909361655 0)
(1.95385785525 -19.6489434014 0)
(0.126963740026 -19.0129456982 0)
(-1.7157854091 -19.461740945 0)
(-3.17672892861 -20.7582567854 0)
(-4.0153422436 -22.6497107567 0)
(-4.01562880087 -24.8582033816 0)
(-3.06748165913 -26.8622634164 0)
(-1.43229613071 -28.0030919292 0)
(0.322270220724 -28.0571981772 0)
(1.74103014762 -27.3118789554 0)
(2.69632273843 -26.1712677036 0)
(3.30609078905 -24.902487091 0)
(3.69784061498 -23.472252681 0)
(3.73628243468 -21.6811277878 0)
(3.00760089992 -19.5834433649 0)
(1.11332869583 -17.7089870447 0)
(-1.91996026523 -16.9948329478 0)
(-5.32243455813 -18.3351420109 0)
(-7.94114896097 -21.591903044 0)
(-9.15497369408 -25.6525685759 0)
(-9.12637982654 -29.560389097 0)
(-8.33027874303 -32.8915954838 0)
(-7.17615579818 -35.5835589063 0)
(-5.89653171184 -37.7193320235 0)
(-4.58233141995 -39.3789259143 0)
(-3.2626183408 -40.5978698274 0)
(-1.95026842273 -41.3958229599 0)
(-0.648500729724 -41.7895238647 0)
(1.35421241192 -27.8933385452 0)
(3.62551444429 -26.2954122673 0)
(4.71534111313 -23.6103745264 0)
(4.30578757016 -20.7748462872 0)
(2.59252189683 -18.6503971949 0)
(0.175948950768 -17.8676591963 0)
(-2.19961378742 -18.474031269 0)
(-4.05127264701 -20.0639029992 0)
(-5.14485339892 -22.3501561329 0)
(-5.18702661459 -25.1064519406 0)
(-3.93925533366 -27.6793892256 0)
(-1.74558502293 -29.0650059078 0)
(0.537454547481 -28.9755546968 0)
(2.27088199347 -27.9276098724 0)
(3.34231765184 -26.5231567764 0)
(4.00856289989 -25.1389453823 0)
(4.54780897605 -23.6476331694 0)
(4.80482534692 -21.5958214323 0)
(4.14675198369 -18.9138406884 0)
(1.90322441664 -16.2445590842 0)
(-2.03004966304 -14.9076895962 0)
(-6.56944177045 -16.3804714349 0)
(-9.94595110057 -20.4761158774 0)
(-11.3022837365 -25.4090346757 0)
(-11.032000665 -29.8781703522 0)
(-9.88077540744 -33.4716707478 0)
(-8.39874334249 -36.2453580384 0)
(-6.84967737559 -38.3954001285 0)
(-5.30264881902 -40.056849684 0)
(-3.7659176347 -41.2714954309 0)
(-2.24685443063 -42.0611689861 0)
(-0.7463273727 -42.4485279762 0)
(1.80834941535 -29.4650515306 0)
(4.84403901162 -27.3579317682 0)
(6.28305678771 -23.7921642921 0)
(5.70892589203 -20.0797896571 0)
(3.40745140069 -17.3151166051 0)
(0.215146702989 -16.3736626035 0)
(-2.81390731057 -17.2389044995 0)
(-5.11479136053 -19.1937856404 0)
(-6.53661671427 -21.9312995841 0)
(-6.68024534722 -25.3986141038 0)
(-5.04675864273 -28.7912612558 0)
(-2.08037886631 -30.4934170651 0)
(0.890968238394 -30.1310489387 0)
(2.96722910781 -28.6297421237 0)
(4.09065498351 -26.8670045021 0)
(4.74385259253 -25.3989335521 0)
(5.46940258994 -23.9596231544 0)
(6.10317867519 -21.6642659657 0)
(5.68323207397 -18.2369970295 0)
(3.11640424191 -14.4427060457 0)
(-1.98791644057 -12.113599696 0)
(-8.10664769871 -13.7654005128 0)
(-12.4554305814 -19.146239983 0)
(-13.8560009315 -25.2766355886 0)
(-13.1576978626 -30.410028383 0)
(-11.5138725861 -34.2518536931 0)
(-9.63802048855 -37.0582235629 0)
(-7.80227753467 -39.1887713815 0)
(-6.02037907117 -40.8416265667 0)
(-4.26477799184 -42.0465144192 0)
(-2.53878469537 -42.8221880569 0)
(-0.842180224772 -43.1994895892 0)
(2.40777229314 -31.5626443927 0)
(6.46195806354 -28.7841937661 0)
(8.35441216869 -24.0095895691 0)
(7.54431141369 -19.1466888064 0)
(4.44558542362 -15.5228062901 0)
(0.214055003562 -14.4266445096 0)
(-3.60967530589 -15.7299171165 0)
(-6.39747018933 -18.126443703 0)
(-8.2472676306 -21.3283138561 0)
(-8.61700745045 -25.7076420077 0)
(-6.48665681435 -30.3238100778 0)
(-2.41547886434 -32.4358377254 0)
(1.46929201818 -31.5689487426 0)
(3.90290421176 -29.3946708054 0)
(4.95772193766 -27.1343788174 0)
(5.46225357372 -25.6486715515 0)
(6.41514276922 -24.4823039813 0)
(7.66613840936 -22.0120965904 0)
(7.7575319437 -17.6480409727 0)
(4.9649230834 -12.2704271445 0)
(-1.6913968966 -8.31993912243 0)
(-10.085761914 -10.2135830208 0)
(-15.7015686385 -17.6244191861 0)
(-16.9341779365 -25.3889105344 0)
(-15.5196097172 -31.2601944288 0)
(-13.2048729974 -35.2863062707 0)
(-10.8672021867 -38.0354544656 0)
(-8.74137887748 -40.0969730414 0)
(-6.73152033783 -41.7337910844 0)
(-4.7561983798 -42.9242350257 0)
(-2.82334201563 -43.678132495 0)
(-0.934978138825 -44.0401848929 0)
(3.19757472862 -34.3540554764 0)
(8.62056642342 -30.708668724 0)
(11.1018092676 -24.2481727026 0)
(9.95231753149 -17.9028065124 0)
(5.76747354909 -13.097437466 0)
(0.111591289803 -11.8785252505 0)
(-4.66380690728 -13.9462802453 0)
(-7.91398973033 -16.8563286087 0)
(-10.3272158666 -20.4294267286 0)
(-11.1779934581 -25.9558163001 0)
(-8.41085650159 -32.4806215127 0)
(-2.70294819871 -35.121052416 0)
(2.4115516984 -33.3315638028 0)
(5.18451407044 -30.1787498287 0)
(5.96365461045 -27.2055217314 0)
(6.06989001056 -25.815752452 0)
(7.28769007053 -25.3278764204 0)
(9.52031017951 -22.8300608645 0)
(10.5540667969 -17.3088750579 0)
(7.78045516703 -9.73750515877 0)
(-0.959494378714 -3.06117157273 0)
(-12.7588877305 -5.27826597128 0)
(-20.0430943382 -16.0099374232 0)
(-20.6738885528 -25.9702443332 0)
(-18.1063957307 -32.5674204865 0)
(-14.9015026045 -36.6357596238 0)
(-12.0433538739 -39.180359067 0)
(-9.65144584403 -41.107105568 0)
(-7.4340100633 -42.7332811029 0)
(-5.23694869719 -43.906839372 0)
(-3.09675962899 -44.6277213955 0)
(-1.02320642372 -44.9671974136 0)
(4.23046566934 -38.0561343627 0)
(11.5148994504 -33.3362010191 0)
(14.7573432745 -24.4571710434 0)
(13.119679032 -16.2730075417 0)
(7.45772605457 -9.77444291302 0)
(-0.210366386116 -8.50762625879 0)
(-6.09857698495 -11.9508777149 0)
(-9.63904343096 -15.4191750571 0)
(-12.7970114763 -19.0408563257 0)
(-14.6426048425 -25.9529375543 0)
(-11.0692748723 -35.606968768 0)
(-2.84095000936 -38.912042946 0)
(3.94044331184 -35.4331241956 0)
(6.96592524745 -30.9158413619 0)
(7.139220626 -26.8784948918 0)
(6.40107622921 -25.7548406355 0)
(7.90798856296 -26.6731900089 0)
(11.6756390906 -24.400883001 0)
(14.3038097966 -17.479014381 0)
(12.088774826 -6.97732967811 0)
(0.538222697141 4.42465385333 0)
(-16.5601448392 1.78950086642 0)
(-26.0475578194 -14.5844749189 0)
(-25.2129194682 -27.3885693599 0)
(-20.8523673625 -34.5030936257 0)
(-16.5113422876 -38.3623824676 0)
(-13.1028751588 -40.4759695719 0)
(-10.5178398954 -42.1886014259 0)
(-8.13138723984 -43.8421060878 0)
(-5.70341852608 -44.9988381047 0)
(-3.35352103643 -45.668839713 0)
(-1.10471614789 -45.9753705289 0)
(5.55754140041 -42.9376427585 0)
(15.4200480831 -37.0029061 0)
(19.6334060063 -24.4917812824 0)
(17.2936815967 -14.221019366 0)
(9.65016419053 -5.1426357059 0)
(-0.976626111135 -3.95824702765 0)
(-8.11958130646 -9.94818729991 0)
(-11.4589790357 -13.9425825659 0)
(-15.5940971152 -16.8285227212 0)
(-19.4610496792 -25.2633382554 0)
(-14.8904091975 -40.3192382365 0)
(-2.61602591253 -44.3975888123 0)
(6.40965249049 -37.7926698645 0)
(9.46182872233 -31.5311606095 0)
(8.54415497363 -25.8210642079 0)
(6.172542452 -25.1812592525 0)
(7.96466888779 -28.8138032837 0)
(14.1173979935 -27.1315165014 0)
(19.2658434583 -18.5412970252 0)
(18.7322892842 -4.43918151 0)
(3.42392089355 15.4230149552 0)
(-22.2634521166 12.2953084019 0)
(-34.6321294513 -14.0481624142 0)
(-30.6331979063 -30.2260154769 0)
(-23.5933022846 -37.2493492898 0)
(-17.8879405776 -40.5222062615 0)
(-13.9564633531 -41.868602835 0)
(-11.334514102 -43.2816291009 0)
(-8.83912840273 -45.0718142126 0)
(-6.15031550979 -46.2093076023 0)
(-3.58502584107 -46.7976016002 0)
(-1.17647183167 -47.0569564921 0)
(7.19783399859 -49.3024151335 0)
(20.7378301885 -42.3132366031 0)
(26.1482866415 -23.9657743844 0)
(22.7942518202 -11.8702879541 0)
(12.5891122237 1.46340274507 0)
(-2.61314218312 2.38552555149 0)
(-11.0907447541 -8.44352379994 0)
(-13.0792111416 -12.7421904047 0)
(-18.4573893211 -13.2279940909 0)
(-26.3879626002 -22.9174377944 0)
(-20.6364001508 -47.7748102337 0)
(-1.57766582334 -52.5527666715 0)
(10.3736574132 -40.0650348287 0)
(12.9517280757 -32.0071421376 0)
(10.3141713045 -23.4944051794 0)
(4.90470669131 -23.5377714303 0)
(6.93285993851 -32.2811422672 0)
(16.8118922199 -31.5869675338 0)
(25.6499772923 -20.9791848814 0)
(29.0709308161 -3.3384674017 0)
(8.90546765308 32.1716571348 0)
(-31.2957335239 28.6079451086 0)
(-47.3082197588 -16.0504113378 0)
(-36.813512906 -35.3493043411 0)
(-26.0004627548 -40.9304850896 0)
(-18.8209690602 -43.1609135754 0)
(-14.4825865785 -43.2418536285 0)
(-12.1194455842 -44.2775990761 0)
(-9.59522649052 -46.4618414044 0)
(-6.56631221988 -47.554399529 0)
(-3.77734548136 -48.0059760762 0)
(-1.23439359387 -48.2005324573 0)
(9.05213066561 -57.4142005675 0)
(28.0883684576 -50.462799743 0)
(34.8548803308 -21.8763935322 0)
(30.0082701614 -9.82860635752 0)
(16.7780709433 11.172921028 0)
(-5.93008938364 11.667752619 0)
(-15.6834392845 -8.57076496791 0)
(-13.8512141812 -12.4942856351 0)
(-20.68172081 -7.3257682495 0)
(-36.7344577506 -16.7787243969 0)
(-29.708073636 -60.2493858508 0)
(1.23886178997 -65.0234525811 0)
(16.6824647574 -41.2289004368 0)
(17.747143547 -32.5956573115 0)
(12.7788403273 -19.0273912261 0)
(1.7791739081 -19.7178134894 0)
(3.94007083605 -38.1062810509 0)
(19.7683766864 -38.5190976011 0)
(33.3900935244 -25.1734143022 0)
(45.3077102923 -6.70301297151 0)
(19.3971271487 58.6911033812 0)
(-46.3744863529 55.1966993862 0)
(-66.6107541762 -24.390164901 0)
(-43.0732347822 -43.8997578949 0)
(-27.4991069017 -45.4470925871 0)
(-19.0436248471 -46.3347729409 0)
(-14.5148061034 -44.3741724232 0)
(-12.9445079899 -44.9841653096 0)
(-10.4775286292 -48.1223881547 0)
(-6.9223828457 -49.0575997346 0)
(-3.90809230521 -49.2766692183 0)
(-1.27375002221 -49.3902898836 0)
(10.6735344108 -67.2636888157 0)
(38.5067337061 -64.0208813253 0)
(46.4653833342 -15.6521459536 0)
(39.3189091004 -10.0250629534 0)
(23.337291712 26.0094660334 0)
(-12.4849851811 26.1337126932 0)
(-23.1717638811 -12.7763446486 0)
(-12.4567127824 -14.5189555872 0)
(-20.599608702 2.2322978038 0)
(-52.8497714008 -2.13509171628 0)
(-44.7587642429 -82.3976163226 0)
(7.93257688364 -84.6357597559 0)
(26.5875550481 -38.6018138497 0)
(24.0524826811 -34.417206889 0)
(16.7530932156 -10.9948831011 0)
(-4.63473822108 -11.4724486322 0)
(-2.46778211733 -48.4243929711 0)
(23.2783255943 -48.8898401506 0)
(41.5580196071 -30.6476759111 0)
(71.0031896578 -21.797168741 0)
(39.8553238319 102.434200881 0)
(-72.836367665 100.810142687 0)
(-96.8564483994 -47.747804927 0)
(-47.341976749 -56.9394889438 0)
(-27.2179702778 -50.1273634815 0)
(-18.2845089783 -50.2192903168 0)
(-13.8072827628 -44.8623053021 0)
(-13.99355345 -45.0574171938 0)
(-11.631943703 -50.3325118305 0)
(-7.1434527517 -50.7383629499 0)
(-3.94369055587 -50.5723143395 0)
(-1.29120392652 -50.6072221481 0)
)
;

boundaryField
{
    left
    {
        type            calculated;
        value           nonuniform List<vector> 
16
(
(0 -24.1495362342 0)
(0 -24.2438955219 0)
(0 -24.4402375889 0)
(0 -24.7544459282 0)
(0 -25.2119719316 0)
(0 -25.8499205392 0)
(0 -26.7201123006 0)
(0 -27.8933385452 0)
(0 -29.4650515306 0)
(0 -31.5626443927 0)
(0 -34.3540554764 0)
(0 -38.0561343627 0)
(0 -42.9376427585 0)
(0 -49.3024151335 0)
(0 -57.4142005675 0)
(0 -67.2636888157 0)
)
;
    }
    right
    {
        type            calculated;
        value           nonuniform List<vector> 
16
(
(0 -39.8098295024 0)
(0 -39.9039692199 0)
(0 -40.0923417496 0)
(0 -40.3750742452 0)
(0 -40.7522591303 0)
(0 -41.2238494562 0)
(0 -41.7895238647 0)
(0 -42.4485279762 0)
(0 -43.1994895892 0)
(0 -44.0401848929 0)
(0 -44.9671974136 0)
(0 -45.9753705289 0)
(0 -47.0569564921 0)
(0 -48.2005324573 0)
(0 -49.3902898836 0)
(0 -50.6072221481 0)
)
;
    }
    interface
    {
        type            calculated;
        value           nonuniform List<vector> 
32
(
(10.6735344108 -72.5937631133 0)
(38.5067337061 -72.5937631133 0)
(46.4653833342 -11.0441383829 0)
(39.3189091004 -11.0441383829 0)
(23.337291712 35.0365298354 0)
(-12.4849851811 35.0365298354 0)
(-23.1717638811 -16.3155083389 0)
(-12.4567127824 -16.3155083389 0)
(-20.599608702 8.12377097053 0)
(-52.8497714008 8.12377097053 0)
(-44.7587642429 -96.6748026813 0)
(7.93257688364 -96.6748026813 0)
(26.5875550481 -35.8580581101 0)
(24.0524826811 -35.8580581101 0)
(16.7530932156 -5.86555314938 0)
(-4.63473822108 -5.86555314938 0)
(-2.46778211733 -55.0689243727 0)
(23.2783255943 -55.0689243727 0)
(41.5580196071 -33.5552858842 0)
(71.0031896578 -33.5552858842 0)
(39.8553238319 129.826550238 0)
(-72.836367665 129.826550238 0)
(-96.8564483994 -64.6899361299 0)
(-47.341976749 -64.6899361299 0)
(-27.2179702778 -52.3740853716 0)
(-18.2845089783 -52.3740853716 0)
(-13.8072827628 -44.880432488 0)
(-13.99355345 -44.880432488 0)
(-11.631943703 -51.6246637048 0)
(-7.1434527517 -51.6246637048 0)
(-3.94369055587 -51.2199890987 0)
(-1.29120392652 -51.2199890987 0)
)
;
    }
    bottom
    {
        type            calculated;
        value           nonuniform List<vector> 
32
(
(0.0468995094764 -24.1264134117 0)
(0.125779442718 -23.7512173359 0)
(0.16480218507 -23.1201778699 0)
(0.151936599521 -22.4327998553 0)
(0.0912716600681 -21.9046850738 0)
(0.000399366102499 -21.7026265748 0)
(-0.0964377979713 -21.901490145 0)
(-0.175794735378 -22.4741289586 0)
(-0.219607690703 -23.307848028 0)
(-0.217558584575 -24.2309904842 0)
(-0.169837283345 -25.0483167046 0)
(-0.088704362237 -25.5896887509 0)
(0.00557002168335 -25.7579516025 0)
(0.093411168335 -25.5451285775 0)
(0.162244195593 -25.0106622558 0)
(0.20606845772 -24.2471750127 0)
(0.220030029234 -23.362114594 0)
(0.195596867346 -22.4869347789 0)
(0.12216836691 -21.7973396553 0)
(-0.00415501973947 -21.5095878436 0)
(-0.170588057601 -21.8305798132 0)
(-0.345666102578 -22.8742923044 0)
(-0.491053285785 -24.5959086338 0)
(-0.579975157754 -26.8027185907 0)
(-0.606557800582 -29.2357098958 0)
(-0.581207358688 -31.6551809953 0)
(-0.520351453368 -33.8853687653 0)
(-0.438693548948 -35.8179926223 0)
(-0.346295480674 -37.3949171569 0)
(-0.248977869809 -38.5883564677 0)
(-0.149743254059 -39.3867401154 0)
(-0.0499452980961 -39.7863025001 0)
)
;
    }
    defaultFaces
    {
        type            empty;
    }
}


// ************************************************************************* //
