/*--------------------------------*- C++ -*----------------------------------*\
| =========                 |                                                 |
| \\      /  F ield         | OpenFOAM: The Open Source CFD Toolbox           |
|  \\    /   O peration     | Version:  2112                                  |
|   \\  /    A nd           | Website:  www.openfoam.com                      |
|    \\/     M anipulation  |                                                 |
\*---------------------------------------------------------------------------*/
FoamFile
{
    version     2.0;
    format      ascii;
    arch        "LSB;label=32;scalar=64";
    class       volScalarField;
    location    "0.6";
    object      gradTx;
}
// * * * * * * * * * * * * * * * * * * * * * * * * * * * * * * * * * * * * * //

dimensions      [0 -1 0 1 0 0 0];

internalField   nonuniform List<scalar> 
512
(
0.0468995094764
0.125779442718
0.16480218507
0.151936599521
0.0912716600681
0.000399366102499
-0.0964377979713
-0.175794735378
-0.219607690703
-0.217558584575
-0.169837283345
-0.088704362237
0.00557002168335
0.093411168335
0.162244195593
0.20606845772
0.220030029234
0.195596867346
0.12216836691
-0.00415501973947
-0.170588057601
-0.345666102578
-0.491053285785
-0.579975157754
-0.606557800582
-0.581207358688
-0.520351453368
-0.438693548948
-0.346295480674
-0.248977869809
-0.149743254059
-0.0499452980961
0.144434603627
0.387317999471
0.507393150681
0.467780826862
0.281401706761
0.00272462958861
-0.293653756061
-0.536232542677
-0.670239865885
-0.664044575164
-0.517812639806
-0.269340117374
0.0183827005188
0.285054190748
0.493056243981
0.62574408425
0.669761700308
0.599109672471
0.379793678452
-0.00238031922635
-0.509554793315
-1.04438292454
-1.48724767754
-1.75548991148
-1.83264245026
-1.75248847898
-1.56624768577
-1.31875987599
-1.04011177696
-0.747412070392
-0.449373636752
-0.149861085582
0.253478050568
0.679600536779
0.889960629625
0.820384602032
0.494698424882
0.00957784833702
-0.504220342931
-0.923699616247
-1.15578274469
-1.14539334638
-0.891191039945
-0.459613503365
0.0366505091762
0.491570072036
0.842911093963
1.06780607801
1.14837900145
1.03999869957
0.678327664694
0.030815810608
-0.841464682202
-1.76597713429
-2.52701263922
-2.97871620689
-3.0980112338
-2.95026148414
-2.6274345173
-2.20660076258
-1.73743012523
-1.24717961801
-0.749381034073
-0.249834960489
0.382742221886
1.02588749343
1.34261189889
1.23713546393
0.747995615859
0.0237652205755
-0.738189807751
-1.35782498839
-1.70171870678
-1.68745412294
-1.30865101292
-0.665767083966
0.0655741783248
0.72432273782
1.22473474935
1.54631329823
1.67459782528
1.54456027437
1.04864499199
0.120488738327
-1.1600789395
-2.52825299879
-3.6439698036
-4.28494367968
-4.43007079159
-4.19175383479
-3.71308713161
-3.10650276809
-2.44000673704
-1.74883591154
-1.04984112913
-0.349850416843
0.542609007979
1.45386815774
1.90095007235
1.74997200573
1.06026368379
0.0476087010043
-1.00748843497
-1.86061894016
-2.33688732801
-2.32031609608
-1.7917657283
-0.893628779906
0.113091776772
0.997137071624
1.65176591102
2.07365348246
2.2659043151
2.14107973306
1.5274735174
0.298661229114
-1.45646130662
-3.35338355172
-4.87941852201
-5.71499426917
-5.8578959773
-5.49326657508
-4.83067039406
-4.02135326665
-3.14874013216
-2.25245163356
-1.35056760452
-0.449804411952
0.745989239658
1.9980090919
2.60897621785
2.39770847297
1.45352666319
0.0823477225666
-1.32695824383
-2.45728774115
-3.09488010082
-3.08075028478
-2.36681105985
-1.1481176425
0.191848060561
1.32791675667
2.13762171962
2.65905538859
2.93712932448
2.86042068886
2.1606816121
0.608919208055
-1.71697217991
-4.27090672232
-6.28723781806
-7.31804071002
-7.41248721103
-6.86919050277
-5.98487507267
-4.95199387161
-3.86337991703
-2.75746911189
-1.65102741198
-0.549476920274
1.00938627641
2.70255700224
3.52277379766
3.22893722631
1.95385785525
0.126963740026
-1.7157854091
-3.17672892861
-4.0153422436
-4.01562880087
-3.06748165913
-1.43229613071
0.322270220724
1.74103014762
2.69632273843
3.30609078905
3.69784061498
3.73628243468
3.00760089992
1.11332869583
-1.91996026523
-5.32243455813
-7.94114896097
-9.15497369408
-9.12637982654
-8.33027874303
-7.17615579818
-5.89653171184
-4.58233141995
-3.2626183408
-1.95026842273
-0.648500729724
1.35421241192
3.62551444429
4.71534111313
4.30578757016
2.59252189683
0.175948950768
-2.19961378742
-4.05127264701
-5.14485339892
-5.18702661459
-3.93925533366
-1.74558502293
0.537454547481
2.27088199347
3.34231765184
4.00856289989
4.54780897605
4.80482534692
4.14675198369
1.90322441664
-2.03004966304
-6.56944177045
-9.94595110057
-11.3022837365
-11.032000665
-9.88077540744
-8.39874334249
-6.84967737559
-5.30264881902
-3.7659176347
-2.24685443063
-0.7463273727
1.80834941535
4.84403901162
6.28305678771
5.70892589203
3.40745140069
0.215146702989
-2.81390731057
-5.11479136053
-6.53661671427
-6.68024534722
-5.04675864273
-2.08037886631
0.890968238394
2.96722910781
4.09065498351
4.74385259253
5.46940258994
6.10317867519
5.68323207397
3.11640424191
-1.98791644057
-8.10664769871
-12.4554305814
-13.8560009315
-13.1576978626
-11.5138725861
-9.63802048855
-7.80227753467
-6.02037907117
-4.26477799184
-2.53878469537
-0.842180224772
2.40777229314
6.46195806354
8.35441216869
7.54431141369
4.44558542362
0.214055003562
-3.60967530589
-6.39747018933
-8.2472676306
-8.61700745045
-6.48665681435
-2.41547886434
1.46929201818
3.90290421176
4.95772193766
5.46225357372
6.41514276922
7.66613840936
7.7575319437
4.9649230834
-1.6913968966
-10.085761914
-15.7015686385
-16.9341779365
-15.5196097172
-13.2048729974
-10.8672021867
-8.74137887748
-6.73152033783
-4.7561983798
-2.82334201563
-0.934978138825
3.19757472862
8.62056642342
11.1018092676
9.95231753149
5.76747354909
0.111591289803
-4.66380690728
-7.91398973033
-10.3272158666
-11.1779934581
-8.41085650159
-2.70294819871
2.4115516984
5.18451407044
5.96365461045
6.06989001056
7.28769007053
9.52031017951
10.5540667969
7.78045516703
-0.959494378714
-12.7588877305
-20.0430943382
-20.6738885528
-18.1063957307
-14.9015026045
-12.0433538739
-9.65144584403
-7.4340100633
-5.23694869719
-3.09675962899
-1.02320642372
4.23046566934
11.5148994504
14.7573432745
13.119679032
7.45772605457
-0.210366386116
-6.09857698495
-9.63904343096
-12.7970114763
-14.6426048425
-11.0692748723
-2.84095000936
3.94044331184
6.96592524745
7.139220626
6.40107622921
7.90798856296
11.6756390906
14.3038097966
12.088774826
0.538222697141
-16.5601448392
-26.0475578194
-25.2129194682
-20.8523673625
-16.5113422876
-13.1028751588
-10.5178398954
-8.13138723984
-5.70341852608
-3.35352103643
-1.10471614789
5.55754140041
15.4200480831
19.6334060063
17.2936815967
9.65016419053
-0.976626111135
-8.11958130646
-11.4589790357
-15.5940971152
-19.4610496792
-14.8904091975
-2.61602591253
6.40965249049
9.46182872233
8.54415497363
6.172542452
7.96466888779
14.1173979935
19.2658434583
18.7322892842
3.42392089355
-22.2634521166
-34.6321294513
-30.6331979063
-23.5933022846
-17.8879405776
-13.9564633531
-11.334514102
-8.83912840273
-6.15031550979
-3.58502584107
-1.17647183167
7.19783399859
20.7378301885
26.1482866415
22.7942518202
12.5891122237
-2.61314218312
-11.0907447541
-13.0792111416
-18.4573893211
-26.3879626002
-20.6364001508
-1.57766582334
10.3736574132
12.9517280757
10.3141713045
4.90470669131
6.93285993851
16.8118922199
25.6499772923
29.0709308161
8.90546765308
-31.2957335239
-47.3082197588
-36.813512906
-26.0004627548
-18.8209690602
-14.4825865785
-12.1194455842
-9.59522649052
-6.56631221988
-3.77734548136
-1.23439359387
9.05213066561
28.0883684576
34.8548803308
30.0082701614
16.7780709433
-5.93008938364
-15.6834392845
-13.8512141812
-20.68172081
-36.7344577506
-29.708073636
1.23886178997
16.6824647574
17.747143547
12.7788403273
1.7791739081
3.94007083605
19.7683766864
33.3900935244
45.3077102923
19.3971271487
-46.3744863529
-66.6107541762
-43.0732347822
-27.4991069017
-19.0436248471
-14.5148061034
-12.9445079899
-10.4775286292
-6.9223828457
-3.90809230521
-1.27375002221
10.6735344108
38.5067337061
46.4653833342
39.3189091004
23.337291712
-12.4849851811
-23.1717638811
-12.4567127824
-20.599608702
-52.8497714008
-44.7587642429
7.93257688364
26.5875550481
24.0524826811
16.7530932156
-4.63473822108
-2.46778211733
23.2783255943
41.5580196071
71.0031896578
39.8553238319
-72.836367665
-96.8564483994
-47.341976749
-27.2179702778
-18.2845089783
-13.8072827628
-13.99355345
-11.631943703
-7.1434527517
-3.94369055587
-1.29120392652
)
;

boundaryField
{
    left
    {
        type            calculated;
        value           uniform 0;
    }
    right
    {
        type            calculated;
        value           uniform 0;
    }
    interface
    {
        type            calculated;
        value           nonuniform List<scalar> 
32
(
10.6735344108
38.5067337061
46.4653833342
39.3189091004
23.337291712
-12.4849851811
-23.1717638811
-12.4567127824
-20.599608702
-52.8497714008
-44.7587642429
7.93257688364
26.5875550481
24.0524826811
16.7530932156
-4.63473822108
-2.46778211733
23.2783255943
41.5580196071
71.0031896578
39.8553238319
-72.836367665
-96.8564483994
-47.341976749
-27.2179702778
-18.2845089783
-13.8072827628
-13.99355345
-11.631943703
-7.1434527517
-3.94369055587
-1.29120392652
)
;
    }
    bottom
    {
        type            calculated;
        value           nonuniform List<scalar> 
32
(
0.0468995094764
0.125779442718
0.16480218507
0.151936599521
0.0912716600681
0.000399366102499
-0.0964377979713
-0.175794735378
-0.219607690703
-0.217558584575
-0.169837283345
-0.088704362237
0.00557002168335
0.093411168335
0.162244195593
0.20606845772
0.220030029234
0.195596867346
0.12216836691
-0.00415501973947
-0.170588057601
-0.345666102578
-0.491053285785
-0.579975157754
-0.606557800582
-0.581207358688
-0.520351453368
-0.438693548948
-0.346295480674
-0.248977869809
-0.149743254059
-0.0499452980961
)
;
    }
    defaultFaces
    {
        type            empty;
    }
}


// ************************************************************************* //
