/*--------------------------------*- C++ -*----------------------------------*\
| =========                 |                                                 |
| \\      /  F ield         | OpenFOAM: The Open Source CFD Toolbox           |
|  \\    /   O peration     | Version:  2112                                  |
|   \\  /    A nd           | Website:  www.openfoam.com                      |
|    \\/     M anipulation  |                                                 |
\*---------------------------------------------------------------------------*/
FoamFile
{
    version     2.0;
    format      ascii;
    arch        "LSB;label=32;scalar=64";
    class       volScalarField;
    location    "0.6";
    object      gradTy;
}
// * * * * * * * * * * * * * * * * * * * * * * * * * * * * * * * * * * * * * //

dimensions      [0 -1 0 1 0 0 0];

internalField   nonuniform List<scalar> 
512
(
-24.1495362342
-23.766868008
-23.1233413498
-22.4224773365
-21.8839064971
-21.6771306028
-21.8776585057
-22.4573137109
-23.3017130618
-24.2370088241
-25.0649193813
-25.6123086704
-25.7810083405
-25.564403226
-25.0240776223
-24.2538023468
-23.3604525384
-22.4742188878
-21.7710394587
-21.470294797
-21.7841101367
-22.8305804989
-24.5642081909
-26.7871824255
-29.2351383294
-31.6655829272
-33.9025300047
-35.8387812055
-37.4174368546
-38.6115957207
-39.410216735
-39.8098295024
-24.2438955219
-23.8307384398
-23.1362533338
-22.3804215507
-21.7993573288
-21.573568021
-21.7810003643
-22.3891331109
-23.2768101261
-24.2614832189
-25.1324796497
-25.7041907321
-25.8742979319
-25.6420297571
-25.0779801245
-24.2806959604
-23.354504884
-22.423998016
-21.6657012195
-21.3116794204
-21.5957595588
-22.6534326696
-24.4363816222
-26.7253513765
-29.2338637205
-31.7082582429
-33.9719719714
-35.9224243708
-37.5077863987
-38.7046936599
-39.5041898951
-39.9039692199
-24.4402375889
-23.9636223524
-23.163098601
-22.293184856
-21.6243893269
-21.3599970378
-21.5823081449
-22.2490691412
-23.2254930364
-24.312026823
-25.2723121319
-25.8937035692
-26.0651660651
-25.7993206136
-25.186628971
-24.3359636029
-23.345490543
-22.3262913529
-21.4545893392
-20.9885887258
-21.2088512241
-22.2896370182
-24.1765913726
-26.6030812703
-29.235498909
-31.797937953
-34.1140296206
-36.0916168447
-37.6895154048
-38.8914067648
-39.6923630871
-40.0923417496
-24.7544459282
-24.1761840134
-23.2059106863
-22.1542051279
-21.3467358789
-21.0230746101
-21.2706741735
-22.0296107942
-23.1445128214
-24.3918199608
-25.4943583208
-26.1929693375
-26.3623888739
-26.0400868023
-25.3512548747
-24.4223771682
-23.3395600658
-22.1873265409
-21.1373979988
-20.4890348355
-20.6017071618
-21.7190280843
-23.7765199966
-26.4238398499
-29.2490761212
-31.9436093369
-34.3350863031
-36.3500810905
-37.9645913112
-39.1727011043
-39.9751353423
-40.3750742452
-25.2119719316
-24.4854778961
-23.2677287347
-21.9527492581
-20.9465827166
-20.5416871635
-20.8294177126
-21.7192240356
-23.0283432181
-24.5055468237
-25.8149355418
-26.6218669176
-26.7796366589
-26.3693191531
-25.5724486212
-24.5435452126
-23.3469644405
-22.0184822141
-20.7152436115
-19.7944089739
-19.738382672
-20.9081954547
-23.2236901191
-26.1947314837
-29.2898841798
-32.1595643225
-34.6447575157
-36.7031402046
-38.3357397228
-39.5498865646
-40.3530061235
-40.7522591303
-25.8499205392
-24.9163660023
-23.3525428502
-21.6727185517
-20.394612409
-19.8855302088
-20.235902331
-21.302124157
-22.8681223079
-24.6590339882
-26.2587477174
-27.2104658499
-27.3360824191
-26.792108962
-25.8482962671
-24.7029953071
-23.3834216539
-21.8391227074
-20.1930162507
-18.8788679424
-18.5636813172
-19.8058658596
-22.5017833301
-25.9293267375
-29.3817421799
-32.466294436
-35.0557665158
-37.1572652442
-38.8061234062
-40.0244478198
-40.8264568207
-41.2238494562
-26.7201123006
-25.503665956
-23.4651015958
-21.2909361655
-19.6489434014
-19.0129456982
-19.461740945
-20.7582567854
-22.6497107567
-24.8582033816
-26.8622634164
-28.0030919292
-28.0571981772
-27.3118789554
-26.1712677036
-24.902487091
-23.472252681
-21.6811277878
-19.5834433649
-17.7089870447
-16.9948329478
-18.3351420109
-21.591903044
-25.6525685759
-29.560389097
-32.8915954838
-35.5835589063
-37.7193320235
-39.3789259143
-40.5978698274
-41.3958229599
-41.7895238647
-27.8933385452
-26.2954122673
-23.6103745264
-20.7748462872
-18.6503971949
-17.8676591963
-18.474031269
-20.0639029992
-22.3501561329
-25.1064519406
-27.6793892256
-29.0650059078
-28.9755546968
-27.9276098724
-26.5231567764
-25.1389453823
-23.6476331694
-21.5958214323
-18.9138406884
-16.2445590842
-14.9076895962
-16.3804714349
-20.4761158774
-25.4090346757
-29.8781703522
-33.4716707478
-36.2453580384
-38.3954001285
-40.056849684
-41.2714954309
-42.0611689861
-42.4485279762
-29.4650515306
-27.3579317682
-23.7921642921
-20.0797896571
-17.3151166051
-16.3736626035
-17.2389044995
-19.1937856404
-21.9312995841
-25.3986141038
-28.7912612558
-30.4934170651
-30.1310489387
-28.6297421237
-26.8670045021
-25.3989335521
-23.9596231544
-21.6642659657
-18.2369970295
-14.4427060457
-12.113599696
-13.7654005128
-19.146239983
-25.2766355886
-30.410028383
-34.2518536931
-37.0582235629
-39.1887713815
-40.8416265667
-42.0465144192
-42.8221880569
-43.1994895892
-31.5626443927
-28.7841937661
-24.0095895691
-19.1466888064
-15.5228062901
-14.4266445096
-15.7299171165
-18.126443703
-21.3283138561
-25.7076420077
-30.3238100778
-32.4358377254
-31.5689487426
-29.3946708054
-27.1343788174
-25.6486715515
-24.4823039813
-22.0120965904
-17.6480409727
-12.2704271445
-8.31993912243
-10.2135830208
-17.6244191861
-25.3889105344
-31.2601944288
-35.2863062707
-38.0354544656
-40.0969730414
-41.7337910844
-42.9242350257
-43.678132495
-44.0401848929
-34.3540554764
-30.708668724
-24.2481727026
-17.9028065124
-13.097437466
-11.8785252505
-13.9462802453
-16.8563286087
-20.4294267286
-25.9558163001
-32.4806215127
-35.121052416
-33.3315638028
-30.1787498287
-27.2055217314
-25.815752452
-25.3278764204
-22.8300608645
-17.3088750579
-9.73750515877
-3.06117157273
-5.27826597128
-16.0099374232
-25.9702443332
-32.5674204865
-36.6357596238
-39.180359067
-41.107105568
-42.7332811029
-43.906839372
-44.6277213955
-44.9671974136
-38.0561343627
-33.3362010191
-24.4571710434
-16.2730075417
-9.77444291302
-8.50762625879
-11.9508777149
-15.4191750571
-19.0408563257
-25.9529375543
-35.606968768
-38.912042946
-35.4331241956
-30.9158413619
-26.8784948918
-25.7548406355
-26.6731900089
-24.400883001
-17.479014381
-6.97732967811
4.42465385333
1.78950086642
-14.5844749189
-27.3885693599
-34.5030936257
-38.3623824676
-40.4759695719
-42.1886014259
-43.8421060878
-44.9988381047
-45.668839713
-45.9753705289
-42.9376427585
-37.0029061
-24.4917812824
-14.221019366
-5.1426357059
-3.95824702765
-9.94818729991
-13.9425825659
-16.8285227212
-25.2633382554
-40.3192382365
-44.3975888123
-37.7926698645
-31.5311606095
-25.8210642079
-25.1812592525
-28.8138032837
-27.1315165014
-18.5412970252
-4.43918151
15.4230149552
12.2953084019
-14.0481624142
-30.2260154769
-37.2493492898
-40.5222062615
-41.868602835
-43.2816291009
-45.0718142126
-46.2093076023
-46.7976016002
-47.0569564921
-49.3024151335
-42.3132366031
-23.9657743844
-11.8702879541
1.46340274507
2.38552555149
-8.44352379994
-12.7421904047
-13.2279940909
-22.9174377944
-47.7748102337
-52.5527666715
-40.0650348287
-32.0071421376
-23.4944051794
-23.5377714303
-32.2811422672
-31.5869675338
-20.9791848814
-3.3384674017
32.1716571348
28.6079451086
-16.0504113378
-35.3493043411
-40.9304850896
-43.1609135754
-43.2418536285
-44.2775990761
-46.4618414044
-47.554399529
-48.0059760762
-48.2005324573
-57.4142005675
-50.462799743
-21.8763935322
-9.82860635752
11.172921028
11.667752619
-8.57076496791
-12.4942856351
-7.3257682495
-16.7787243969
-60.2493858508
-65.0234525811
-41.2289004368
-32.5956573115
-19.0273912261
-19.7178134894
-38.1062810509
-38.5190976011
-25.1734143022
-6.70301297151
58.6911033812
55.1966993862
-24.390164901
-43.8997578949
-45.4470925871
-46.3347729409
-44.3741724232
-44.9841653096
-48.1223881547
-49.0575997346
-49.2766692183
-49.3902898836
-67.2636888157
-64.0208813253
-15.6521459536
-10.0250629534
26.0094660334
26.1337126932
-12.7763446486
-14.5189555872
2.2322978038
-2.13509171628
-82.3976163226
-84.6357597559
-38.6018138497
-34.417206889
-10.9948831011
-11.4724486322
-48.4243929711
-48.8898401506
-30.6476759111
-21.797168741
102.434200881
100.810142687
-47.747804927
-56.9394889438
-50.1273634815
-50.2192903168
-44.8623053021
-45.0574171938
-50.3325118305
-50.7383629499
-50.5723143395
-50.6072221481
)
;

boundaryField
{
    left
    {
        type            calculated;
        value           nonuniform List<scalar> 
16
(
-24.1495362342
-24.2438955219
-24.4402375889
-24.7544459282
-25.2119719316
-25.8499205392
-26.7201123006
-27.8933385452
-29.4650515306
-31.5626443927
-34.3540554764
-38.0561343627
-42.9376427585
-49.3024151335
-57.4142005675
-67.2636888157
)
;
    }
    right
    {
        type            calculated;
        value           nonuniform List<scalar> 
16
(
-39.8098295024
-39.9039692199
-40.0923417496
-40.3750742452
-40.7522591303
-41.2238494562
-41.7895238647
-42.4485279762
-43.1994895892
-44.0401848929
-44.9671974136
-45.9753705289
-47.0569564921
-48.2005324573
-49.3902898836
-50.6072221481
)
;
    }
    interface
    {
        type            calculated;
        value           nonuniform List<scalar> 
32
(
-72.5937631133
-72.5937631133
-11.0441383829
-11.0441383829
35.0365298354
35.0365298354
-16.3155083389
-16.3155083389
8.12377097053
8.12377097053
-96.6748026813
-96.6748026813
-35.8580581101
-35.8580581101
-5.86555314938
-5.86555314938
-55.0689243727
-55.0689243727
-33.5552858842
-33.5552858842
129.826550238
129.826550238
-64.6899361299
-64.6899361299
-52.3740853716
-52.3740853716
-44.880432488
-44.880432488
-51.6246637048
-51.6246637048
-51.2199890987
-51.2199890987
)
;
    }
    bottom
    {
        type            calculated;
        value           nonuniform List<scalar> 
32
(
-24.1264134117
-23.7512173359
-23.1201778699
-22.4327998553
-21.9046850738
-21.7026265748
-21.901490145
-22.4741289586
-23.307848028
-24.2309904842
-25.0483167046
-25.5896887509
-25.7579516025
-25.5451285775
-25.0106622558
-24.2471750127
-23.362114594
-22.4869347789
-21.7973396553
-21.5095878436
-21.8305798132
-22.8742923044
-24.5959086338
-26.8027185907
-29.2357098958
-31.6551809953
-33.8853687653
-35.8179926223
-37.3949171569
-38.5883564677
-39.3867401154
-39.7863025001
)
;
    }
    defaultFaces
    {
        type            empty;
    }
}


// ************************************************************************* //
