/*--------------------------------*- C++ -*----------------------------------*\
| =========                 |                                                 |
| \\      /  F ield         | OpenFOAM: The Open Source CFD Toolbox           |
|  \\    /   O peration     | Version:  2112                                  |
|   \\  /    A nd           | Website:  www.openfoam.com                      |
|    \\/     M anipulation  |                                                 |
\*---------------------------------------------------------------------------*/
FoamFile
{
    version     2.0;
    format      ascii;
    arch        "LSB;label=32;scalar=64";
    class       volScalarField;
    location    "0.6";
    object      T;
}
// * * * * * * * * * * * * * * * * * * * * * * * * * * * * * * * * * * * * * //

dimensions      [0 0 0 1 0 0 0];

internalField   nonuniform List<scalar> 
512
(
309.811546624
309.814481842
309.819419593
309.824799143
309.82893548
309.830524043
309.82897938
309.824513498
309.818008252
309.810805095
309.804430474
309.800214513
309.798916841
309.800599709
309.8047981
309.810787913
309.817729156
309.824593927
309.830007969
309.832279444
309.829789757
309.82164658
309.808200371
309.790958485
309.77194712
309.753040643
309.735613582
309.720511792
309.708189497
309.698864021
309.692624925
309.689502541
309.433917139
309.442956414
309.45816048
309.474721381
309.487457568
309.492370772
309.487685079
309.474068358
309.45421864
309.432229198
309.412774602
309.399938977
309.396032795
309.401200247
309.413979272
309.432161581
309.453245172
309.474185922
309.490853791
309.498075395
309.490831364
309.466315833
309.42560153
309.37337013
309.315867849
309.258805103
309.206312459
309.160893712
309.123872614
309.095873723
309.077149093
309.067780273
309.054060982
309.069924345
309.096598538
309.125639077
309.147977895
309.156663246
309.148673347
309.125235411
309.091022133
309.053082735
309.019532534
308.997506036
308.990962481
308.999987772
309.021907933
309.052916899
309.088912593
309.124970496
309.154193814
309.16762803
309.156337075
309.115185846
309.046036408
308.957256328
308.85983665
308.763585987
308.675401899
308.599335665
308.537460021
308.490724228
308.459494122
308.443875083
308.670293982
308.694246966
308.734505459
308.778297408
308.811982217
308.825201142
308.813606449
308.779185959
308.728853893
308.672944046
308.62352362
308.591327013
308.582136603
308.595701111
308.627727933
308.672603577
308.724757151
308.777670981
308.821702084
308.843595773
308.829551777
308.771307454
308.671636402
308.543563824
308.403776278
308.266614978
308.141726927
308.034495377
307.947528616
307.881963301
307.838201816
307.816329975
308.280615096
308.314572873
308.371613125
308.433573381
308.481201512
308.500049407
308.484361722
308.437239638
308.368215214
308.291329695
308.223367985
308.179570287
308.167812611
308.18700757
308.230564054
308.290719552
308.360681029
308.432882149
308.495054059
308.52887547
308.514158434
308.438139051
308.304697343
308.133165947
307.947427444
307.766945864
307.604008516
307.464959625
307.352618422
307.268121193
307.211807663
307.183687064
307.882543777
307.92922937
308.007597956
308.092548464
308.15774197
308.183668662
308.16312407
308.100929521
308.009715046
307.907672267
307.817375203
307.760025974
307.745994403
307.772490963
307.829543028
307.906703154
307.996390797
308.090973208
308.175891556
308.226711477
308.214531104
308.119781474
307.947744911
307.726790365
307.490237598
307.263366153
307.060793963
306.889222596
306.751223687
306.647707261
306.578840844
306.544489471
307.472917747
307.536086979
307.642066812
307.756603603
307.844252552
307.879072771
307.85248
307.772070139
307.654132978
307.521306941
307.403393301
307.329922551
307.314340755
307.350660889
307.423851387
307.519943955
307.631298894
307.75193543
307.865740505
307.940814308
307.936086243
307.821304029
307.603590939
307.32489
307.031206129
306.754292495
306.510410397
306.305673014
306.141789679
306.019209352
305.937826088
305.89728493
307.047634543
307.132383359
307.274547447
307.427545729
307.544150802
307.590026951
307.555503787
307.45282319
307.302521521
307.131482045
306.978591711
306.885664273
306.870060103
306.919996188
307.012853977
307.129827792
307.264384686
307.415143321
307.565848698
307.675480745
307.685796597
307.549222553
307.275359227
306.927416936
306.568666729
306.237647558
305.950927192
305.712595648
305.522716545
305.381095604
305.287287272
305.24063139
306.601316218
306.714485642
306.904491138
307.107774917
307.26193865
307.321307455
307.275812871
307.145746614
306.956379699
306.737427508
306.53913253
306.422438582
306.40979376
306.479040885
306.596310168
306.735843509
306.893993947
307.078985073
307.276891918
307.435687317
307.472974878
307.31223338
306.966430444
306.533433951
306.099985106
305.710720263
305.380138575
305.108196053
304.892370999
304.731817388
304.625752408
304.57310503
306.12687276
306.277555474
306.531306426
306.800496104
307.003659387
307.079059886
307.017542929
306.853794335
306.617955384
306.338554233
306.079646782
305.933608538
305.929503361
306.026575693
306.174745127
306.337800844
306.517542112
306.740301028
306.998470469
307.227081367
307.310512151
307.122388121
306.680192105
306.140458771
305.621153048
305.170019388
304.7955865
304.490662376
304.249104703
304.069810597
303.95175979
303.893311635
305.61493882
305.815049944
306.154471633
306.509958496
306.777581738
306.871327316
306.785140686
306.580197241
306.290777918
305.934939609
305.592355986
305.409745691
305.424415391
305.561886272
305.750064553
305.936249935
306.131058988
306.393549532
306.728287138
307.055681681
307.216898976
306.99705011
306.41933929
305.743377579
305.12627709
304.611143707
304.194656947
303.858285399
303.591273227
303.393490273
303.263865783
303.199903271
305.053167656
305.317921434
305.773847294
306.241643266
306.595261193
306.708893165
306.582768739
306.328084622
305.980595906
305.52842863
305.065520432
304.837053417
304.889170002
305.085122871
305.326548498
305.53327264
305.728451216
306.029602609
306.460879269
306.926839748
307.219626237
306.962281322
306.184159967
305.332687802
304.607011169
304.028708498
303.574801066
303.209669038
302.917237329
302.701230039
302.560656375
302.4916031
304.425405801
304.77321467
305.390497765
306.002150101
306.473251767
306.606743886
306.412908919
306.099571172
305.697008442
305.1250547
304.480557165
304.19474299
304.318552689
304.597645737
304.912433724
305.133977379
305.300217215
305.634070624
306.185831734
306.842409356
307.361079537
307.058932279
305.968540833
304.891761815
304.052106924
303.416378435
302.933957481
302.544081092
302.225300094
301.991313182
301.840767628
301.767241249
303.710892801
304.161360513
305.008811917
305.798092756
306.435987186
306.586804002
306.273328395
305.893794073
305.456227877
304.740302616
303.806436792
303.450587411
303.709743619
304.101950145
304.522415707
304.749370137
304.831016602
305.185085462
305.885702602
306.793681721
307.709059161
307.354003442
305.750856778
304.392872018
303.44752913
302.767027765
302.271289021
301.862027731
301.513471294
301.26183986
301.102926614
301.0258031
302.883962464
303.450483579
304.641936229
305.632200747
306.520864733
306.683348745
306.150697628
305.70298597
305.285529793
304.410554281
302.988352181
302.553268029
303.06833919
303.599944691
304.181621941
304.402018235
304.294713702
304.650558937
305.53494324
306.744440244
308.376110792
307.962602841
305.47333726
303.792236396
302.778143896
302.072890999
301.588416505
301.166211101
300.778817893
300.51059006
300.346041363
300.266489515
301.915594039
302.583594149
304.325635271
305.492046957
306.787693415
306.954124087
306.007296438
305.505105049
305.229739146
304.218162502
301.92404565
301.419017482
302.423504829
303.086223185
303.932056541
304.137584793
303.6436868
303.985058329
305.104199326
306.591100434
309.556082516
309.091805114
304.995338552
303.026355515
302.03304301
301.325058037
300.89149476
300.463207403
300.015874818
299.734919302
299.569410229
299.488790313
)
;

boundaryField
{
    left
    {
        type            zeroGradient;
    }
    right
    {
        type            zeroGradient;
    }
    interface
    {
        type            fixedGradient;
        gradient        nonuniform List<scalar> 
32
(
-72.6521977213
-72.6521977213
-11.0148684027
-11.0148684027
35.1730331109
35.1730331109
-16.2603810596
-16.2603810596
8.24509950579
8.24509950579
-96.7048808765
-96.7048808765
-35.753725205
-35.753725205
-5.66483687027
-5.66483687027
-54.958431447
-54.958431447
-33.363922236
-33.363922236
130.503255353
130.503255353
-64.5253386407
-64.5253386407
-52.1501175541
-52.1501175541
-44.5834387344
-44.5834387344
-51.3879503075
-51.3879503075
-50.9600904714
-50.9600904714
)
;
    }
    bottom
    {
        type            fixedValue;
        value           uniform 310;
    }
    defaultFaces
    {
        type            empty;
    }
}


// ************************************************************************* //
