/*--------------------------------*- C++ -*----------------------------------*\
| =========                 |                                                 |
| \\      /  F ield         | OpenFOAM: The Open Source CFD Toolbox           |
|  \\    /   O peration     | Version:  2112                                  |
|   \\  /    A nd           | Website:  www.openfoam.com                      |
|    \\/     M anipulation  |                                                 |
\*---------------------------------------------------------------------------*/
FoamFile
{
    version     2.0;
    format      ascii;
    arch        "LSB;label=32;scalar=64";
    class       volVectorField;
    location    "5";
    object      flux;
}
// * * * * * * * * * * * * * * * * * * * * * * * * * * * * * * * * * * * * * //

dimensions      [0 1 -1 1 0 0 0];

internalField   nonuniform List<vector> 
512
(
(0.0209339 -23.143 0)
(0.0601836 -22.9742 0)
(0.0925527 -22.6581 0)
(0.115955 -22.2293 0)
(0.130417 -21.726 0)
(0.137275 -21.1821 0)
(0.138329 -20.6248 0)
(0.135303 -20.0735 0)
(0.129589 -19.5411 0)
(0.122211 -19.0359 0)
(0.113863 -18.5629 0)
(0.104988 -18.1247 0)
(0.0958492 -17.7229 0)
(0.0865864 -17.3579 0)
(0.0772574 -17.0301 0)
(0.0678651 -16.7398 0)
(0.0583762 -16.4871 0)
(0.0487359 -16.2727 0)
(0.03888 -16.0971 0)
(0.0287498 -15.9615 0)
(0.0183096 -15.867 0)
(0.00757271 -15.8149 0)
(-0.00336401 -15.8063 0)
(-0.0142727 -15.8418 0)
(-0.0247361 -15.9207 0)
(-0.0340857 -16.0402 0)
(-0.0413593 -16.1944 0)
(-0.0453257 -16.3728 0)
(-0.0446512 -16.5593 0)
(-0.0382859 -16.7328 0)
(-0.0260654 -16.8685 0)
(-0.00927381 -16.9436 0)
(0.0634564 -23.1852 0)
(0.182272 -23.011 0)
(0.2799 -22.6862 0)
(0.3501 -22.2479 0)
(0.393152 -21.736 0)
(0.413278 -21.1855 0)
(0.41601 -20.6233 0)
(0.406581 -20.0687 0)
(0.389187 -19.5342 0)
(0.36688 -19.0278 0)
(0.341725 -18.5541 0)
(0.315034 -18.1156 0)
(0.287582 -17.7135 0)
(0.259779 -17.3484 0)
(0.231792 -17.0206 0)
(0.203623 -16.7302 0)
(0.175171 -16.4774 0)
(0.146265 -16.2628 0)
(0.116713 -16.087 0)
(0.0863306 -15.951 0)
(0.0550066 -15.8561 0)
(0.0227715 -15.8037 0)
(-0.0100958 -15.795 0)
(-0.0429264 -15.8307 0)
(-0.0744842 -15.9102 0)
(-0.102774 -16.0313 0)
(-0.124903 -16.1881 0)
(-0.137136 -16.3704 0)
(-0.135376 -16.5623 0)
(-0.116322 -16.7419 0)
(-0.0793397 -16.8834 0)
(-0.0282608 -16.9621 0)
(0.108003 -23.2708 0)
(0.309662 -23.0855 0)
(0.474107 -22.7427 0)
(0.591035 -22.2849 0)
(0.661625 -21.7557 0)
(0.693633 -21.1917 0)
(0.696738 -20.6199 0)
(0.679859 -20.0588 0)
(0.65002 -19.5203 0)
(0.612269 -19.0115 0)
(0.56998 -18.5364 0)
(0.52528 -18.0972 0)
(0.479413 -17.6948 0)
(0.43303 -17.3296 0)
(0.386383 -17.0016 0)
(0.339464 -16.711 0)
(0.292089 -16.458 0)
(0.243968 -16.243 0)
(0.194764 -16.0666 0)
(0.144158 -15.93 0)
(0.0919419 -15.8345 0)
(0.0381383 -15.7814 0)
(-0.0168276 -15.7724 0)
(-0.07189 -15.8083 0)
(-0.125042 -15.8892 0)
(-0.172997 -16.0131 0)
(-0.210917 -16.1751 0)
(-0.232443 -16.3653 0)
(-0.230425 -16.5681 0)
(-0.198844 -16.7603 0)
(-0.136139 -16.9137 0)
(-0.0486068 -16.9999 0)
(0.156134 -23.4029 0)
(0.446362 -23.1993 0)
(0.680196 -22.8278 0)
(0.843558 -22.3397 0)
(0.939753 -21.7842 0)
(0.98122 -21.1998 0)
(0.982473 -20.6137 0)
(0.956387 -20.0432 0)
(0.912844 -19.4988 0)
(0.858806 -18.9866 0)
(0.798854 -18.5097 0)
(0.735835 -18.0695 0)
(0.671391 -17.6667 0)
(0.606364 -17.3013 0)
(0.541061 -16.9732 0)
(0.475438 -16.6823 0)
(0.409214 -16.4289 0)
(0.341961 -16.2133 0)
(0.273183 -16.0361 0)
(0.202405 -15.8986 0)
(0.129292 -15.8019 0)
(0.053812 -15.7479 0)
(-0.0235199 -15.7383 0)
(-0.101318 -15.7744 0)
(-0.176887 -15.857 0)
(-0.245719 -15.9851 0)
(-0.301024 -16.1547 0)
(-0.333635 -16.3569 0)
(-0.332867 -16.5761 0)
(-0.289159 -16.7881 0)
(-0.199145 -16.9606 0)
(-0.0713635 -17.059 0)
(0.209771 -23.5857 0)
(0.597169 -23.3551 0)
(0.90391 -22.9422 0)
(1.11288 -22.4114 0)
(1.23157 -21.8197 0)
(1.27887 -21.2083 0)
(1.27506 -20.6036 0)
(1.23729 -20.021 0)
(1.17831 -19.4693 0)
(1.10684 -18.9528 0)
(1.02852 -18.4737 0)
(0.946768 -18.0324 0)
(0.863539 -17.6291 0)
(0.779792 -17.2635 0)
(0.695845 -16.9353 0)
(0.611588 -16.6442 0)
(0.526622 -16.3902 0)
(0.440361 -16.1738 0)
(0.352128 -15.9956 0)
(0.261261 -15.8567 0)
(0.167256 -15.7585 0)
(0.0699709 -15.7031 0)
(-0.0300754 -15.6925 0)
(-0.131284 -15.7287 0)
(-0.230402 -15.8133 0)
(-0.321812 -15.9466 0)
(-0.396798 -16.1259 0)
(-0.44317 -16.344 0)
(-0.446044 -16.5858 0)
(-0.39107 -16.8256 0)
(-0.27159 -17.0257 0)
(-0.0978342 -17.1425 0)
(0.271434 -23.8262 0)
(0.768149 -23.5565 0)
(1.15208 -23.0859 0)
(1.40477 -22.4982 0)
(1.54126 -21.8602 0)
(1.58931 -21.2152 0)
(1.57615 -20.5878 0)
(1.52353 -19.9911 0)
(1.44692 -19.4309 0)
(1.35661 -18.9097 0)
(1.25906 -18.4281 0)
(1.1581 -17.9858 0)
(1.05585 -17.5821 0)
(0.953302 -17.2163 0)
(0.850739 -16.8879 0)
(0.747948 -16.5965 0)
(0.644385 -16.342 0)
(0.539286 -16.1246 0)
(0.431763 -15.945 0)
(0.320932 -15.8044 0)
(0.206069 -15.7043 0)
(0.0868476 -15.6469 0)
(-0.0363151 -15.6347 0)
(-0.161751 -15.6706 0)
(-0.285826 -15.7572 0)
(-0.401998 -15.8962 0)
(-0.49972 -16.0872 0)
(-0.563578 -16.3248 0)
(-0.57368 -16.5957 0)
(-0.509133 -16.8727 0)
(-0.357594 -17.1115 0)
(-0.129744 -17.2548 0)
(0.344625 -24.1341 0)
(0.967336 -23.8081 0)
(1.43307 -23.2589 0)
(1.72571 -22.5976 0)
(1.87308 -21.9025 0)
(1.91506 -21.2176 0)
(1.88713 -20.5644 0)
(1.81578 -19.9519 0)
(1.71898 -19.3827 0)
(1.60823 -18.8566 0)
(1.49049 -18.3726 0)
(1.36979 -17.9294 0)
(1.24826 -17.5254 0)
(1.12685 -17.1597 0)
(1.00573 -16.8312 0)
(0.88454 -16.5396 0)
(0.762572 -16.2844 0)
(0.638854 -16.0659 0)
(0.512262 -15.8846 0)
(0.381647 -15.7418 0)
(0.246007 -15.6391 0)
(0.104742 -15.5791 0)
(-0.041957 -15.5648 0)
(-0.192531 -15.5997 0)
(-0.343204 -15.6878 0)
(-0.486783 -15.8327 0)
(-0.611099 -16.0365 0)
(-0.697427 -16.2972 0)
(-0.719972 -16.6038 0)
(-0.648974 -16.9291 0)
(-0.462657 -17.2209 0)
(-0.169506 -17.4027 0)
(0.434435 -24.5235 0)
(1.20578 -24.1156 0)
(1.75734 -23.4599 0)
(2.08298 -22.7055 0)
(2.23127 -21.9421 0)
(2.25832 -21.212 0)
(2.20899 -20.5309 0)
(2.11442 -19.9019 0)
(1.99457 -19.3236 0)
(1.86163 -18.793 0)
(1.7227 -18.307 0)
(1.58173 -17.863 0)
(1.4407 -17.4591 0)
(1.30038 -17.0936 0)
(1.16078 -16.7652 0)
(1.02137 -16.4733 0)
(0.881241 -16.2175 0)
(0.739185 -15.9976 0)
(0.593811 -15.8144 0)
(0.443661 -15.6689 0)
(0.28739 -15.5632 0)
(0.124032 -15.4997 0)
(-0.0465958 -15.4823 0)
(-0.223257 -15.5152 0)
(-0.402332 -15.6039 0)
(-0.576365 -15.7542 0)
(-0.731966 -15.9714 0)
(-0.847224 -16.2578 0)
(-0.889634 -16.607 0)
(-0.817672 -16.9936 0)
(-0.594395 -17.3575 0)
(-0.220654 -17.5957 0)
(0.548608 -25.0149 0)
(1.49918 -24.4849 0)
(2.13812 -23.6855 0)
(2.48458 -22.8155 0)
(2.6198 -21.9734 0)
(2.62068 -21.1942 0)
(2.54218 -20.4842 0)
(2.41941 -19.8392 0)
(2.27346 -19.2526 0)
(2.11656 -18.7181 0)
(1.95546 -18.2307 0)
(1.79373 -17.7866 0)
(1.633 -17.3831 0)
(1.47378 -17.018 0)
(1.31583 -16.69 0)
(1.15844 -16.398 0)
(1.00044 -16.1413 0)
(0.840398 -15.92 0)
(0.676603 -15.7345 0)
(0.507252 -15.5859 0)
(0.330592 -15.4763 0)
(0.145184 -15.4086 0)
(-0.0496863 -15.3869 0)
(-0.253345 -15.4165 0)
(-0.462693 -15.5043 0)
(-0.670534 -15.6587 0)
(-0.862906 -15.8887 0)
(-1.01523 -16.2024 0)
(-1.08786 -16.6006 0)
(-1.02422 -17.0634 0)
(-0.763708 -17.5252 0)
(-0.288598 -17.8478 0)
(0.699422 -25.6388 0)
(1.87049 -24.9217 0)
(2.59204 -23.9287 0)
(2.93901 -22.9187 0)
(3.04193 -21.989 0)
(3.00291 -21.1591 0)
(2.88648 -20.4213 0)
(2.73022 -19.7619 0)
(2.55514 -19.1685 0)
(2.37258 -18.6314 0)
(2.18843 -18.1435 0)
(2.00553 -17.7 0)
(1.82498 -17.2974 0)
(1.64691 -16.9332 0)
(1.47082 -16.6056 0)
(1.29571 -16.3136 0)
(1.12022 -16.0562 0)
(0.942609 -15.8333 0)
(0.760844 -15.6451 0)
(0.572729 -15.493 0)
(0.376035 -15.3788 0)
(0.168751 -15.3058 0)
(-0.0505329 -15.2784 0)
(-0.28197 -15.303 0)
(-0.523398 -15.3878 0)
(-0.768545 -15.5439 0)
(-1.00384 -15.7847 0)
(-1.20316 -16.1255 0)
(-1.32012 -16.5776 0)
(-1.28001 -17.133 0)
(-0.986625 -17.7274 0)
(-0.381957 -18.1802 0)
(0.907153 -26.4419 0)
(2.3542 -25.4274 0)
(3.13963 -24.1762 0)
(3.45445 -23.0017 0)
(3.49958 -21.9796 0)
(3.40453 -21.1009 0)
(3.24077 -20.3387 0)
(3.04579 -19.6681 0)
(2.83873 -19.0703 0)
(2.62906 -18.5323 0)
(2.42116 -18.0452 0)
(2.2168 -17.6031 0)
(2.01642 -17.2019 0)
(1.81963 -16.839 0)
(1.62562 -16.5123 0)
(1.43316 -16.2203 0)
(1.24061 -15.9623 0)
(1.04593 -15.7376 0)
(0.846742 -15.5466 0)
(0.640417 -15.3903 0)
(0.42419 -15.2707 0)
(0.195379 -15.1912 0)
(-0.048287 -15.1566 0)
(-0.308051 -15.1741 0)
(-0.583134 -15.2532 0)
(-0.868989 -15.4075 0)
(-1.15374 -15.6554 0)
(-1.41167 -16.0205 0)
(-1.5916 -16.5284 0)
(-1.59911 -17.1925 0)
(-1.28733 -17.9645 0)
(-0.515024 -18.6255 0)
(1.20667 -27.4986 0)
(3.00333 -25.9923 0)
(3.80489 -24.4046 0)
(4.03733 -23.0466 0)
(3.99231 -21.9343 0)
(3.82335 -21.0136 0)
(3.6029 -20.2332 0)
(3.36442 -19.556 0)
(3.12303 -18.9571 0)
(2.88515 -18.4204 0)
(2.65306 -17.9355 0)
(2.42716 -17.4958 0)
(2.20703 -17.0968 0)
(1.99173 -16.7356 0)
(1.78012 -16.4101 0)
(1.57072 -16.1185 0)
(1.3616 -15.8598 0)
(1.15046 -15.6333 0)
(0.934502 -15.4391 0)
(0.710655 -15.2782 0)
(0.475561 -15.1524 0)
(0.225788 -15.0652 0)
(-0.0419554 -15.0216 0)
(-0.330248 -15.0295 0)
(-0.640133 -15.0995 0)
(-0.969672 -15.2475 0)
(-1.31032 -15.4966 0)
(-1.63966 -15.8794 0)
(-1.90611 -16.44 0)
(-1.99805 -17.2246 0)
(-1.70314 -18.2292 0)
(-0.712435 -19.2357 0)
(1.66034 -28.932 0)
(3.90123 -26.5775 0)
(4.61247 -24.5755 0)
(4.68957 -23.03 0)
(4.51606 -21.8412 0)
(4.25508 -20.8912 0)
(3.96957 -20.1019 0)
(3.68383 -19.4243 0)
(3.40652 -18.8284 0)
(3.13987 -18.2956 0)
(2.88348 -17.8145 0)
(2.63616 -17.3783 0)
(2.39652 -16.9822 0)
(2.16299 -16.6232 0)
(1.93417 -16.2993 0)
(1.70829 -16.0083 0)
(1.48319 -15.7492 0)
(1.25628 -15.5209 0)
(1.02432 -15.3232 0)
(0.783786 -15.1571 0)
(0.530681 -15.0242 0)
(0.260761 -14.9281 0)
(-0.0304205 -14.8735 0)
(-0.34699 -14.8691 0)
(-0.69217 -14.9261 0)
(-1.06754 -15.0621 0)
(-1.46968 -15.3041 0)
(-1.88335 -15.6937 0)
(-2.26417 -16.2952 0)
(-2.49372 -17.2014 0)
(-2.29291 -18.4931 0)
(-1.01831 -20.0974 0)
(2.38392 -30.9539 0)
(5.18156 -27.0745 0)
(5.57862 -24.6323 0)
(5.40449 -22.9243 0)
(5.0617 -21.6883 0)
(4.69298 -20.7287 0)
(4.33635 -19.9427 0)
(4.00119 -19.2722 0)
(3.6874 -18.6838 0)
(3.39209 -18.1578 0)
(3.11171 -17.6823 0)
(2.84332 -17.2507 0)
(2.58457 -16.8582 0)
(2.33318 -16.502 0)
(2.08757 -16.1802 0)
(1.84577 -15.8901 0)
(1.60532 -15.6307 0)
(1.36345 -15.4006 0)
(1.11637 -15.1992 0)
(0.860146 -15.0276 0)
(0.590085 -14.8867 0)
(0.301126 -14.7804 0)
(-0.0124698 -14.7127 0)
(-0.356519 -14.6932 0)
(-0.736609 -14.7327 0)
(-1.15867 -14.8498 0)
(-1.62612 -15.0744 0)
(-2.13524 -15.4547 0)
(-2.65997 -16.0741 0)
(-3.09699 -17.0816 0)
(-3.15116 -18.6786 0)
(-1.5146 -21.3599 0)
(3.60002 -33.9457 0)
(7.06204 -27.2123 0)
(6.68759 -24.5056 0)
(6.16158 -22.7006 0)
(5.61386 -21.4663 0)
(5.12789 -20.5228 0)
(4.69781 -19.7545 0)
(4.31325 -19.0996 0)
(3.96372 -18.5236 0)
(3.64065 -18.0074 0)
(3.33704 -17.5389 0)
(3.04817 -17.1132 0)
(2.77088 -16.7251 0)
(2.50203 -16.372 0)
(2.24013 -16.053 0)
(1.98302 -15.7639 0)
(1.72792 -15.5047 0)
(1.47204 -15.2729 0)
(1.21081 -15.0675 0)
(0.940061 -14.8901 0)
(0.654304 -14.7401 0)
(0.347735 -14.6227 0)
(0.0131716 -14.5395 0)
(-0.356971 -14.5021 0)
(-0.770498 -14.5195 0)
(-1.2384 -14.6104 0)
(-1.7721 -14.8054 0)
(-2.3832 -15.1554 0)
(-3.07762 -15.7555 0)
(-3.79599 -16.8139 0)
(-4.43209 -18.5926 0)
(-2.35894 -23.2922 0)
(5.75062 -38.6209 0)
(9.90163 -26.3434 0)
(7.83448 -24.1535 0)
(6.92413 -22.3343 0)
(6.15062 -21.1717 0)
(5.54886 -20.273 0)
(5.04794 -19.5381 0)
(4.61663 -18.9072 0)
(4.2335 -18.3485 0)
(3.88444 -17.8449 0)
(3.55878 -17.3849 0)
(3.25022 -16.9663 0)
(2.9552 -16.5832 0)
(2.66926 -16.2333 0)
(2.3916 -15.9182 0)
(2.11989 -15.6301 0)
(1.85083 -15.3718 0)
(1.58207 -15.1383 0)
(1.30774 -14.9286 0)
(1.02383 -14.7456 0)
(0.723827 -14.5852 0)
(0.401439 -14.4561 0)
(0.0477941 -14.3546 0)
(-0.346499 -14.2971 0)
(-0.790727 -14.2876 0)
(-1.30161 -14.3446 0)
(-1.89865 -14.4972 0)
(-2.61032 -14.7933 0)
(-3.48922 -15.322 0)
(-4.51554 -16.366 0)
(-6.39027 -17.7759 0)
(-3.86437 -26.3989 0)
)
;

boundaryField
{
    left
    {
        type            calculated;
        value           nonuniform List<vector> 
16
(
(0 -23.143 0)
(0 -23.1852 0)
(0 -23.2708 0)
(0 -23.4029 0)
(0 -23.5857 0)
(0 -23.8262 0)
(0 -24.1341 0)
(0 -24.5235 0)
(0 -25.0149 0)
(0 -25.6388 0)
(0 -26.4419 0)
(0 -27.4986 0)
(0 -28.932 0)
(0 -30.9539 0)
(0 -33.9457 0)
(0 -38.6209 0)
)
;
    }
    right
    {
        type            calculated;
        value           nonuniform List<vector> 
16
(
(0 -16.9436 0)
(0 -16.9621 0)
(0 -16.9999 0)
(0 -17.059 0)
(0 -17.1425 0)
(0 -17.2548 0)
(0 -17.4027 0)
(0 -17.5957 0)
(0 -17.8478 0)
(0 -18.1802 0)
(0 -18.6255 0)
(0 -19.2357 0)
(0 -20.0974 0)
(0 -21.3599 0)
(0 -23.2922 0)
(0 -26.3989 0)
)
;
    }
    interface
    {
        type            calculated;
        value           nonuniform List<vector> 
32
(
(5.75062 -41.4962 0)
(9.90163 -25.5436 0)
(7.83448 -23.9196 0)
(6.92413 -22.1128 0)
(6.15062 -21.0062 0)
(5.54886 -20.1373 0)
(5.04794 -19.4229 0)
(4.61663 -18.8062 0)
(4.2335 -18.2574 0)
(3.88444 -17.7608 0)
(3.55878 -17.3052 0)
(3.25022 -16.8905 0)
(2.9552 -16.5101 0)
(2.66926 -16.1618 0)
(2.3916 -15.849 0)
(2.11989 -15.5613 0)
(1.85083 -15.3036 0)
(1.58207 -15.0695 0)
(1.30774 -14.8574 0)
(1.02383 -14.6717 0)
(0.723827 -14.5058 0)
(0.401439 -14.3708 0)
(0.0477941 -14.2593 0)
(-0.346499 -14.1913 0)
(-0.790727 -14.1671 0)
(-1.30161 -14.2053 0)
(-1.89865 -14.3336 0)
(-2.61032 -14.5966 0)
(-3.48922 -15.0747 0)
(-4.51554 -16.0955 0)
(-6.39027 -17.1042 0)
(-3.86437 -28.3287 0)
)
;
    }
    bottom
    {
        type            calculated;
        value           nonuniform List<vector> 
32
(
(0.0209339 -23.1325 0)
(0.0601836 -22.965 0)
(0.0925527 -22.651 0)
(0.115955 -22.2246 0)
(0.130417 -21.7234 0)
(0.137275 -21.1813 0)
(0.138329 -20.6252 0)
(0.135303 -20.0746 0)
(0.129589 -19.5428 0)
(0.122211 -19.0379 0)
(0.113863 -18.5651 0)
(0.104988 -18.127 0)
(0.0958492 -17.7252 0)
(0.0865864 -17.3602 0)
(0.0772574 -17.0325 0)
(0.0678651 -16.7422 0)
(0.0583762 -16.4896 0)
(0.0487359 -16.2752 0)
(0.03888 -16.0997 0)
(0.0287498 -15.9641 0)
(0.0183096 -15.8697 0)
(0.00757271 -15.8176 0)
(-0.00336401 -15.8091 0)
(-0.0142727 -15.8446 0)
(-0.0247361 -15.9233 0)
(-0.0340857 -16.0424 0)
(-0.0413593 -16.196 0)
(-0.0453257 -16.3733 0)
(-0.0446512 -16.5586 0)
(-0.0382859 -16.7305 0)
(-0.0260654 -16.8649 0)
(-0.00927381 -16.9391 0)
)
;
    }
    defaultFaces
    {
        type            empty;
    }
}


// ************************************************************************* //
