/*--------------------------------*- C++ -*----------------------------------*\
| =========                 |                                                 |
| \\      /  F ield         | OpenFOAM: The Open Source CFD Toolbox           |
|  \\    /   O peration     | Version:  2112                                  |
|   \\  /    A nd           | Website:  www.openfoam.com                      |
|    \\/     M anipulation  |                                                 |
\*---------------------------------------------------------------------------*/
FoamFile
{
    version     2.0;
    format      ascii;
    arch        "LSB;label=32;scalar=64";
    class       volScalarField;
    location    "5";
    object      gradTy;
}
// * * * * * * * * * * * * * * * * * * * * * * * * * * * * * * * * * * * * * //

dimensions      [0 -1 0 1 0 0 0];

internalField   nonuniform List<scalar> 
512
(
-23.143
-22.9742
-22.6581
-22.2293
-21.726
-21.1821
-20.6248
-20.0735
-19.5411
-19.0359
-18.5629
-18.1247
-17.7229
-17.3579
-17.0301
-16.7398
-16.4871
-16.2727
-16.0971
-15.9615
-15.867
-15.8149
-15.8063
-15.8418
-15.9207
-16.0402
-16.1944
-16.3728
-16.5593
-16.7328
-16.8685
-16.9436
-23.1852
-23.011
-22.6862
-22.2479
-21.736
-21.1855
-20.6233
-20.0687
-19.5342
-19.0278
-18.5541
-18.1156
-17.7135
-17.3484
-17.0206
-16.7302
-16.4774
-16.2628
-16.087
-15.951
-15.8561
-15.8037
-15.795
-15.8307
-15.9102
-16.0313
-16.1881
-16.3704
-16.5623
-16.7419
-16.8834
-16.9621
-23.2708
-23.0855
-22.7427
-22.2849
-21.7557
-21.1917
-20.6199
-20.0588
-19.5203
-19.0115
-18.5364
-18.0972
-17.6948
-17.3296
-17.0016
-16.711
-16.458
-16.243
-16.0666
-15.93
-15.8345
-15.7814
-15.7724
-15.8083
-15.8892
-16.0131
-16.1751
-16.3653
-16.5681
-16.7603
-16.9137
-16.9999
-23.4029
-23.1993
-22.8278
-22.3397
-21.7842
-21.1998
-20.6137
-20.0432
-19.4988
-18.9866
-18.5097
-18.0695
-17.6667
-17.3013
-16.9732
-16.6823
-16.4289
-16.2133
-16.0361
-15.8986
-15.8019
-15.7479
-15.7383
-15.7744
-15.857
-15.9851
-16.1547
-16.3569
-16.5761
-16.7881
-16.9606
-17.059
-23.5857
-23.3551
-22.9422
-22.4114
-21.8197
-21.2083
-20.6036
-20.021
-19.4693
-18.9528
-18.4737
-18.0324
-17.6291
-17.2635
-16.9353
-16.6442
-16.3902
-16.1738
-15.9956
-15.8567
-15.7585
-15.7031
-15.6925
-15.7287
-15.8133
-15.9466
-16.1259
-16.344
-16.5858
-16.8256
-17.0257
-17.1425
-23.8262
-23.5565
-23.0859
-22.4982
-21.8602
-21.2152
-20.5878
-19.9911
-19.4309
-18.9097
-18.4281
-17.9858
-17.5821
-17.2163
-16.8879
-16.5965
-16.342
-16.1246
-15.945
-15.8044
-15.7043
-15.6469
-15.6347
-15.6706
-15.7572
-15.8962
-16.0872
-16.3248
-16.5957
-16.8727
-17.1115
-17.2548
-24.1341
-23.8081
-23.2589
-22.5976
-21.9025
-21.2176
-20.5644
-19.9519
-19.3827
-18.8566
-18.3726
-17.9294
-17.5254
-17.1597
-16.8312
-16.5396
-16.2844
-16.0659
-15.8846
-15.7418
-15.6391
-15.5791
-15.5648
-15.5997
-15.6878
-15.8327
-16.0365
-16.2972
-16.6038
-16.9291
-17.2209
-17.4027
-24.5235
-24.1156
-23.4599
-22.7055
-21.9421
-21.212
-20.5309
-19.9019
-19.3236
-18.793
-18.307
-17.863
-17.4591
-17.0936
-16.7652
-16.4733
-16.2175
-15.9976
-15.8144
-15.6689
-15.5632
-15.4997
-15.4823
-15.5152
-15.6039
-15.7542
-15.9714
-16.2578
-16.607
-16.9936
-17.3575
-17.5957
-25.0149
-24.4849
-23.6855
-22.8155
-21.9734
-21.1942
-20.4842
-19.8392
-19.2526
-18.7181
-18.2307
-17.7866
-17.3831
-17.018
-16.69
-16.398
-16.1413
-15.92
-15.7345
-15.5859
-15.4763
-15.4086
-15.3869
-15.4165
-15.5043
-15.6587
-15.8887
-16.2024
-16.6006
-17.0634
-17.5252
-17.8478
-25.6388
-24.9217
-23.9287
-22.9187
-21.989
-21.1591
-20.4213
-19.7619
-19.1685
-18.6314
-18.1435
-17.7
-17.2974
-16.9332
-16.6056
-16.3136
-16.0562
-15.8333
-15.6451
-15.493
-15.3788
-15.3058
-15.2784
-15.303
-15.3878
-15.5439
-15.7847
-16.1255
-16.5776
-17.133
-17.7274
-18.1802
-26.4419
-25.4274
-24.1762
-23.0017
-21.9796
-21.1009
-20.3387
-19.6681
-19.0703
-18.5323
-18.0452
-17.6031
-17.2019
-16.839
-16.5123
-16.2203
-15.9623
-15.7376
-15.5466
-15.3903
-15.2707
-15.1912
-15.1566
-15.1741
-15.2532
-15.4075
-15.6554
-16.0205
-16.5284
-17.1925
-17.9645
-18.6255
-27.4986
-25.9923
-24.4046
-23.0466
-21.9343
-21.0136
-20.2332
-19.556
-18.9571
-18.4204
-17.9355
-17.4958
-17.0968
-16.7356
-16.4101
-16.1185
-15.8598
-15.6333
-15.4391
-15.2782
-15.1524
-15.0652
-15.0216
-15.0295
-15.0995
-15.2475
-15.4966
-15.8794
-16.44
-17.2246
-18.2292
-19.2357
-28.932
-26.5775
-24.5755
-23.03
-21.8412
-20.8912
-20.1019
-19.4243
-18.8284
-18.2956
-17.8145
-17.3783
-16.9822
-16.6232
-16.2993
-16.0083
-15.7492
-15.5209
-15.3232
-15.1571
-15.0242
-14.9281
-14.8735
-14.8691
-14.9261
-15.0621
-15.3041
-15.6937
-16.2952
-17.2014
-18.4931
-20.0974
-30.9539
-27.0745
-24.6323
-22.9243
-21.6883
-20.7287
-19.9427
-19.2722
-18.6838
-18.1578
-17.6823
-17.2507
-16.8582
-16.502
-16.1802
-15.8901
-15.6307
-15.4006
-15.1992
-15.0276
-14.8867
-14.7804
-14.7127
-14.6932
-14.7327
-14.8498
-15.0744
-15.4547
-16.0741
-17.0816
-18.6786
-21.3599
-33.9457
-27.2123
-24.5056
-22.7006
-21.4663
-20.5228
-19.7545
-19.0996
-18.5236
-18.0074
-17.5389
-17.1132
-16.7251
-16.372
-16.053
-15.7639
-15.5047
-15.2729
-15.0675
-14.8901
-14.7401
-14.6227
-14.5395
-14.5021
-14.5195
-14.6104
-14.8054
-15.1554
-15.7555
-16.8139
-18.5926
-23.2922
-38.6209
-26.3434
-24.1535
-22.3343
-21.1717
-20.273
-19.5381
-18.9072
-18.3485
-17.8449
-17.3849
-16.9663
-16.5832
-16.2333
-15.9182
-15.6301
-15.3718
-15.1383
-14.9286
-14.7456
-14.5852
-14.4561
-14.3546
-14.2971
-14.2876
-14.3446
-14.4972
-14.7933
-15.322
-16.366
-17.7759
-26.3989
)
;

boundaryField
{
    left
    {
        type            calculated;
        value           nonuniform List<scalar> 
16
(
-23.143
-23.1852
-23.2708
-23.4029
-23.5857
-23.8262
-24.1341
-24.5235
-25.0149
-25.6388
-26.4419
-27.4986
-28.932
-30.9539
-33.9457
-38.6209
)
;
    }
    right
    {
        type            calculated;
        value           nonuniform List<scalar> 
16
(
-16.9436
-16.9621
-16.9999
-17.059
-17.1425
-17.2548
-17.4027
-17.5957
-17.8478
-18.1802
-18.6255
-19.2357
-20.0974
-21.3599
-23.2922
-26.3989
)
;
    }
    interface
    {
        type            calculated;
        value           nonuniform List<scalar> 
32
(
-41.4962
-25.5436
-23.9196
-22.1128
-21.0062
-20.1373
-19.4229
-18.8062
-18.2574
-17.7608
-17.3052
-16.8905
-16.5101
-16.1618
-15.849
-15.5613
-15.3036
-15.0695
-14.8574
-14.6717
-14.5058
-14.3708
-14.2593
-14.1913
-14.1671
-14.2053
-14.3336
-14.5966
-15.0747
-16.0955
-17.1042
-28.3287
)
;
    }
    bottom
    {
        type            calculated;
        value           nonuniform List<scalar> 
32
(
-23.1325
-22.965
-22.651
-22.2246
-21.7234
-21.1813
-20.6252
-20.0746
-19.5428
-19.0379
-18.5651
-18.127
-17.7252
-17.3602
-17.0325
-16.7422
-16.4896
-16.2752
-16.0997
-15.9641
-15.8697
-15.8176
-15.8091
-15.8446
-15.9233
-16.0424
-16.196
-16.3733
-16.5586
-16.7305
-16.8649
-16.9391
)
;
    }
    defaultFaces
    {
        type            empty;
    }
}


// ************************************************************************* //
