/*--------------------------------*- C++ -*----------------------------------*\
| =========                 |                                                 |
| \\      /  F ield         | OpenFOAM: The Open Source CFD Toolbox           |
|  \\    /   O peration     | Version:  2112                                  |
|   \\  /    A nd           | Website:  www.openfoam.com                      |
|    \\/     M anipulation  |                                                 |
\*---------------------------------------------------------------------------*/
FoamFile
{
    version     2.0;
    format      ascii;
    arch        "LSB;label=32;scalar=64";
    class       volScalarField;
    location    "5";
    object      gradTx;
}
// * * * * * * * * * * * * * * * * * * * * * * * * * * * * * * * * * * * * * //

dimensions      [0 -1 0 1 0 0 0];

internalField   nonuniform List<scalar> 
512
(
0.0209339
0.0601836
0.0925527
0.115955
0.130417
0.137275
0.138329
0.135303
0.129589
0.122211
0.113863
0.104988
0.0958492
0.0865864
0.0772574
0.0678651
0.0583762
0.0487359
0.03888
0.0287498
0.0183096
0.00757271
-0.00336401
-0.0142727
-0.0247361
-0.0340857
-0.0413593
-0.0453257
-0.0446512
-0.0382859
-0.0260654
-0.00927381
0.0634564
0.182272
0.2799
0.3501
0.393152
0.413278
0.41601
0.406581
0.389187
0.36688
0.341725
0.315034
0.287582
0.259779
0.231792
0.203623
0.175171
0.146265
0.116713
0.0863306
0.0550066
0.0227715
-0.0100958
-0.0429264
-0.0744842
-0.102774
-0.124903
-0.137136
-0.135376
-0.116322
-0.0793397
-0.0282608
0.108003
0.309662
0.474107
0.591035
0.661625
0.693633
0.696738
0.679859
0.65002
0.612269
0.56998
0.52528
0.479413
0.43303
0.386383
0.339464
0.292089
0.243968
0.194764
0.144158
0.0919419
0.0381383
-0.0168276
-0.07189
-0.125042
-0.172997
-0.210917
-0.232443
-0.230425
-0.198844
-0.136139
-0.0486068
0.156134
0.446362
0.680196
0.843558
0.939753
0.98122
0.982473
0.956387
0.912844
0.858806
0.798854
0.735835
0.671391
0.606364
0.541061
0.475438
0.409214
0.341961
0.273183
0.202405
0.129292
0.053812
-0.0235199
-0.101318
-0.176887
-0.245719
-0.301024
-0.333635
-0.332867
-0.289159
-0.199145
-0.0713635
0.209771
0.597169
0.90391
1.11288
1.23157
1.27887
1.27506
1.23729
1.17831
1.10684
1.02852
0.946768
0.863539
0.779792
0.695845
0.611588
0.526622
0.440361
0.352128
0.261261
0.167256
0.0699709
-0.0300754
-0.131284
-0.230402
-0.321812
-0.396798
-0.44317
-0.446044
-0.39107
-0.27159
-0.0978342
0.271434
0.768149
1.15208
1.40477
1.54126
1.58931
1.57615
1.52353
1.44692
1.35661
1.25906
1.1581
1.05585
0.953302
0.850739
0.747948
0.644385
0.539286
0.431763
0.320932
0.206069
0.0868476
-0.0363151
-0.161751
-0.285826
-0.401998
-0.49972
-0.563578
-0.57368
-0.509133
-0.357594
-0.129744
0.344625
0.967336
1.43307
1.72571
1.87308
1.91506
1.88713
1.81578
1.71898
1.60823
1.49049
1.36979
1.24826
1.12685
1.00573
0.88454
0.762572
0.638854
0.512262
0.381647
0.246007
0.104742
-0.041957
-0.192531
-0.343204
-0.486783
-0.611099
-0.697427
-0.719972
-0.648974
-0.462657
-0.169506
0.434435
1.20578
1.75734
2.08298
2.23127
2.25832
2.20899
2.11442
1.99457
1.86163
1.7227
1.58173
1.4407
1.30038
1.16078
1.02137
0.881241
0.739185
0.593811
0.443661
0.28739
0.124032
-0.0465958
-0.223257
-0.402332
-0.576365
-0.731966
-0.847224
-0.889634
-0.817672
-0.594395
-0.220654
0.548608
1.49918
2.13812
2.48458
2.6198
2.62068
2.54218
2.41941
2.27346
2.11656
1.95546
1.79373
1.633
1.47378
1.31583
1.15844
1.00044
0.840398
0.676603
0.507252
0.330592
0.145184
-0.0496863
-0.253345
-0.462693
-0.670534
-0.862906
-1.01523
-1.08786
-1.02422
-0.763708
-0.288598
0.699422
1.87049
2.59204
2.93901
3.04193
3.00291
2.88648
2.73022
2.55514
2.37258
2.18843
2.00553
1.82498
1.64691
1.47082
1.29571
1.12022
0.942609
0.760844
0.572729
0.376035
0.168751
-0.0505329
-0.28197
-0.523398
-0.768545
-1.00384
-1.20316
-1.32012
-1.28001
-0.986625
-0.381957
0.907153
2.3542
3.13963
3.45445
3.49958
3.40453
3.24077
3.04579
2.83873
2.62906
2.42116
2.2168
2.01642
1.81963
1.62562
1.43316
1.24061
1.04593
0.846742
0.640417
0.42419
0.195379
-0.048287
-0.308051
-0.583134
-0.868989
-1.15374
-1.41167
-1.5916
-1.59911
-1.28733
-0.515024
1.20667
3.00333
3.80489
4.03733
3.99231
3.82335
3.6029
3.36442
3.12303
2.88515
2.65306
2.42716
2.20703
1.99173
1.78012
1.57072
1.3616
1.15046
0.934502
0.710655
0.475561
0.225788
-0.0419554
-0.330248
-0.640133
-0.969672
-1.31032
-1.63966
-1.90611
-1.99805
-1.70314
-0.712435
1.66034
3.90123
4.61247
4.68957
4.51606
4.25508
3.96957
3.68383
3.40652
3.13987
2.88348
2.63616
2.39652
2.16299
1.93417
1.70829
1.48319
1.25628
1.02432
0.783786
0.530681
0.260761
-0.0304205
-0.34699
-0.69217
-1.06754
-1.46968
-1.88335
-2.26417
-2.49372
-2.29291
-1.01831
2.38392
5.18156
5.57862
5.40449
5.0617
4.69298
4.33635
4.00119
3.6874
3.39209
3.11171
2.84332
2.58457
2.33318
2.08757
1.84577
1.60532
1.36345
1.11637
0.860146
0.590085
0.301126
-0.0124698
-0.356519
-0.736609
-1.15867
-1.62612
-2.13524
-2.65997
-3.09699
-3.15116
-1.5146
3.60002
7.06204
6.68759
6.16158
5.61386
5.12789
4.69781
4.31325
3.96372
3.64065
3.33704
3.04817
2.77088
2.50203
2.24013
1.98302
1.72792
1.47204
1.21081
0.940061
0.654304
0.347735
0.0131716
-0.356971
-0.770498
-1.2384
-1.7721
-2.3832
-3.07762
-3.79599
-4.43209
-2.35894
5.75062
9.90163
7.83448
6.92413
6.15062
5.54886
5.04794
4.61663
4.2335
3.88444
3.55878
3.25022
2.9552
2.66926
2.3916
2.11989
1.85083
1.58207
1.30774
1.02383
0.723827
0.401439
0.0477941
-0.346499
-0.790727
-1.30161
-1.89865
-2.61032
-3.48922
-4.51554
-6.39027
-3.86437
)
;

boundaryField
{
    left
    {
        type            calculated;
        value           uniform 0;
    }
    right
    {
        type            calculated;
        value           uniform 0;
    }
    interface
    {
        type            calculated;
        value           nonuniform List<scalar> 
32
(
5.75062
9.90163
7.83448
6.92413
6.15062
5.54886
5.04794
4.61663
4.2335
3.88444
3.55878
3.25022
2.9552
2.66926
2.3916
2.11989
1.85083
1.58207
1.30774
1.02383
0.723827
0.401439
0.0477941
-0.346499
-0.790727
-1.30161
-1.89865
-2.61032
-3.48922
-4.51554
-6.39027
-3.86437
)
;
    }
    bottom
    {
        type            calculated;
        value           nonuniform List<scalar> 
32
(
0.0209339
0.0601836
0.0925527
0.115955
0.130417
0.137275
0.138329
0.135303
0.129589
0.122211
0.113863
0.104988
0.0958492
0.0865864
0.0772574
0.0678651
0.0583762
0.0487359
0.03888
0.0287498
0.0183096
0.00757271
-0.00336401
-0.0142727
-0.0247361
-0.0340857
-0.0413593
-0.0453257
-0.0446512
-0.0382859
-0.0260654
-0.00927381
)
;
    }
    defaultFaces
    {
        type            empty;
    }
}


// ************************************************************************* //
