/*--------------------------------*- C++ -*----------------------------------*\
| =========                 |                                                 |
| \\      /  F ield         | OpenFOAM: The Open Source CFD Toolbox           |
|  \\    /   O peration     | Version:  2112                                  |
|   \\  /    A nd           | Website:  www.openfoam.com                      |
|    \\/     M anipulation  |                                                 |
\*---------------------------------------------------------------------------*/
FoamFile
{
    version     2.0;
    format      ascii;
    arch        "LSB;label=32;scalar=64";
    class       volScalarField;
    location    "5";
    object      T;
}
// * * * * * * * * * * * * * * * * * * * * * * * * * * * * * * * * * * * * * //

dimensions      [0 0 0 1 0 0 0];

internalField   nonuniform List<scalar> 
512
(
309.819
309.821
309.823
309.826
309.83
309.835
309.839
309.843
309.847
309.851
309.855
309.858
309.862
309.864
309.867
309.869
309.871
309.873
309.874
309.875
309.876
309.876
309.876
309.876
309.876
309.875
309.873
309.872
309.871
309.869
309.868
309.868
309.458
309.461
309.469
309.479
309.491
309.504
309.517
309.53
309.542
309.554
309.565
309.575
309.585
309.593
309.601
309.608
309.614
309.619
309.623
309.626
309.628
309.629
309.63
309.629
309.627
309.624
309.62
309.616
309.612
309.608
309.605
309.603
309.095
309.101
309.114
309.131
309.151
309.172
309.194
309.216
309.237
309.257
309.275
309.292
309.308
309.322
309.335
309.346
309.356
309.365
309.371
309.377
309.381
309.383
309.383
309.381
309.378
309.374
309.368
309.36
309.353
309.346
309.341
309.338
308.73
308.74
308.758
308.783
308.811
308.841
308.872
308.903
308.932
308.96
308.986
309.01
309.032
309.052
309.07
309.085
309.099
309.111
309.121
309.128
309.133
309.136
309.137
309.135
309.13
309.124
309.115
309.105
309.094
309.084
309.076
309.072
308.363
308.377
308.401
308.433
308.47
308.51
308.55
308.59
308.628
308.663
308.697
308.728
308.756
308.782
308.805
308.825
308.843
308.858
308.87
308.88
308.887
308.89
308.891
308.889
308.883
308.874
308.863
308.849
308.835
308.821
308.811
308.804
307.993
308.01
308.041
308.082
308.129
308.179
308.228
308.277
308.324
308.367
308.408
308.446
308.481
308.512
308.54
308.565
308.587
308.606
308.621
308.633
308.641
308.645
308.646
308.643
308.636
308.625
308.611
308.594
308.576
308.558
308.544
308.536
307.619
307.64
307.679
307.73
307.787
307.847
307.907
307.965
308.02
308.072
308.121
308.166
308.206
308.244
308.277
308.306
308.332
308.354
308.372
308.386
308.396
308.401
308.402
308.399
308.39
308.377
308.36
308.339
308.316
308.294
308.276
308.265
307.239
307.266
307.314
307.376
307.445
307.515
307.586
307.654
307.718
307.778
307.834
307.886
307.933
307.976
308.014
308.048
308.078
308.104
308.124
308.141
308.152
308.159
308.16
308.156
308.146
308.131
308.11
308.085
308.057
308.029
308.006
307.992
306.852
306.887
306.946
307.02
307.101
307.184
307.265
307.343
307.416
307.485
307.549
307.607
307.661
307.709
307.753
307.792
307.825
307.854
307.878
307.896
307.91
307.917
307.919
307.914
307.903
307.885
307.861
307.831
307.797
307.763
307.733
307.715
306.457
306.501
306.574
306.663
306.758
306.853
306.946
307.034
307.116
307.193
307.265
307.33
307.39
307.444
307.493
307.536
307.574
307.606
307.633
307.654
307.668
307.677
307.679
307.674
307.661
307.641
307.613
307.578
307.538
307.496
307.458
307.434
306.051
306.108
306.198
306.304
306.414
306.523
306.627
306.725
306.817
306.903
306.982
307.054
307.12
307.18
307.234
307.282
307.324
307.359
307.389
307.412
307.429
307.439
307.441
307.436
307.422
307.399
307.368
307.327
307.279
307.228
307.179
307.147
305.631
305.706
305.819
305.944
306.071
306.194
306.31
306.419
306.52
306.614
306.701
306.78
306.852
306.918
306.977
307.029
307.075
307.114
307.147
307.173
307.191
307.202
307.205
307.2
307.185
307.16
307.124
307.078
307.022
306.959
306.897
306.852
305.192
305.296
305.436
305.584
305.729
305.866
305.995
306.114
306.225
306.327
306.421
306.507
306.586
306.657
306.721
306.778
306.828
306.871
306.906
306.935
306.955
306.968
306.972
306.966
306.95
306.923
306.883
306.831
306.766
306.689
306.61
306.546
304.727
304.876
305.051
305.225
305.389
305.541
305.682
305.812
305.932
306.042
306.144
306.237
306.322
306.398
306.467
306.529
306.583
306.629
306.668
306.699
306.722
306.736
306.741
306.735
306.718
306.689
306.646
306.587
306.512
306.421
306.319
306.224
304.225
304.45
304.666
304.868
305.051
305.218
305.372
305.512
305.641
305.76
305.869
305.968
306.059
306.142
306.216
306.281
306.339
306.389
306.431
306.465
306.49
306.506
306.512
306.507
306.49
306.459
306.412
306.348
306.263
306.156
306.026
305.879
303.666
304.026
304.285
304.515
304.718
304.9
305.065
305.215
305.353
305.48
305.596
305.702
305.799
305.887
305.966
306.036
306.098
306.152
306.197
306.234
306.261
306.279
306.286
306.282
306.264
306.232
306.183
306.114
306.02
305.896
305.738
305.496
)
;

boundaryField
{
    left
    {
        type            zeroGradient;
    }
    right
    {
        type            zeroGradient;
    }
    interface
    {
        type            fixedValue;
        value           nonuniform List<scalar> 
32
(
303.342
303.826
304.098
304.342
304.554
304.742
304.913
305.068
305.21
305.341
305.461
305.57
305.67
305.76
305.842
305.915
305.979
306.034
306.081
306.119
306.148
306.166
306.175
306.171
306.154
306.121
306.071
306
305.902
305.77
305.604
305.275
)
;
    }
    bottom
    {
        type            fixedValue;
        value           uniform 310;
    }
    defaultFaces
    {
        type            empty;
    }
}


// ************************************************************************* //
