/*--------------------------------*- C++ -*----------------------------------*\
| =========                 |                                                 |
| \\      /  F ield         | OpenFOAM: The Open Source CFD Toolbox           |
|  \\    /   O peration     | Version:  2112                                  |
|   \\  /    A nd           | Website:  www.openfoam.com                      |
|    \\/     M anipulation  |                                                 |
\*---------------------------------------------------------------------------*/
FoamFile
{
    version     2.0;
    format      ascii;
    arch        "LSB;label=32;scalar=64";
    class       volVectorField;
    location    "0.4";
    object      flux;
}
// * * * * * * * * * * * * * * * * * * * * * * * * * * * * * * * * * * * * * //

dimensions      [0 1 -1 1 0 0 0];

internalField   nonuniform List<vector> 
512
(
(0.0406459655181 -25.6138896116 0)
(0.107707266494 -25.2815907546 0)
(0.136747371032 -24.7331733506 0)
(0.116358579547 -24.1628211205 0)
(0.0505353624391 -23.7795021377 0)
(-0.0438723813531 -23.7441480064 0)
(-0.143665197501 -24.1276608971 0)
(-0.22640486996 -24.9018566672 0)
(-0.274795528435 -25.9559371624 0)
(-0.278913057805 -27.122202773 0)
(-0.23882073348 -28.2091642624 0)
(-0.166113751467 -29.0488770318 0)
(-0.0800439508595 -29.5445407601 0)
(0.000785368278855 -29.686375323 0)
(0.0644432986292 -29.5294230949 0)
(0.105312104017 -29.1591755845 0)
(0.118986901686 -28.6730681337 0)
(0.0977089445485 -28.1895472602 0)
(0.0317900931122 -27.8688310993 0)
(-0.0822976037583 -27.9109180633 0)
(-0.232693578975 -28.5088638753 0)
(-0.390299798671 -29.7687025703 0)
(-0.519687030419 -31.6452487026 0)
(-0.596126403583 -33.9525840001 0)
(-0.61423162573 -36.4433682864 0)
(-0.583724047456 -38.8907090778 0)
(-0.519988030348 -41.1297585028 0)
(-0.436897844854 -43.0602848017 0)
(-0.344030422697 -44.6298298829 0)
(-0.246925378391 -45.8146507122 0)
(-0.148354142709 -46.6059703652 0)
(-0.0494583743205 -47.0016514441 0)
(0.125503463008 -25.6947792665 0)
(0.332650864034 -25.33336637 0)
(0.422637446012 -24.7362907125 0)
(0.360477026879 -24.1135193346 0)
(0.15880119462 -23.689787867 0)
(-0.130206998334 -23.6364821219 0)
(-0.435189132915 -24.0267729737 0)
(-0.687733262679 -24.8283886681 0)
(-0.83537752445 -25.9241117768 0)
(-0.847700492213 -27.1379079442 0)
(-0.724516395933 -28.2664751884 0)
(-0.501574497362 -29.1299764702 0)
(-0.238705194745 -29.6276370601 0)
(0.00677346431672 -29.7552271594 0)
(0.199156570631 -29.57639152 0)
(0.322865376576 -29.1812622859 0)
(0.365827260461 -28.6650223675 0)
(0.304409572647 -28.1409414194 0)
(0.107524505343 -27.7697517248 0)
(-0.237718784264 -27.7631521059 0)
(-0.69619867453 -28.3342347005 0)
(-1.17789261495 -29.6050872667 0)
(-1.57225368448 -31.5279037836 0)
(-1.80293338833 -33.896930561 0)
(-1.85483091314 -36.4443495068 0)
(-1.75947106071 -38.9328555145 0)
(-1.56479983158 -41.1969452322 0)
(-1.31313784521 -43.1405824378 0)
(-1.03315253255 -44.7160686432 0)
(-0.741144862752 -45.9030969236 0)
(-0.445146223269 -46.6949594634 0)
(-0.148382165162 -47.0906636151 0)
(0.22135241377 -25.8638527552 0)
(0.586951543477 -25.4418094066 0)
(0.746670888707 -24.7434924275 0)
(0.639610002301 -24.0119462618 0)
(0.289053968797 -23.5047517831 0)
(-0.212364934711 -23.4149756452 0)
(-0.739618470612 -23.8198718038 0)
(-1.1750742715 -24.6779275393 0)
(-1.42955516645 -25.8590038998 0)
(-1.45009476363 -27.170821399 0)
(-1.23485499651 -28.385581295 0)
(-0.846694687311 -29.2976549887 0)
(-0.392669295445 -29.7979217617 0)
(0.0264081383648 -29.8948739451 0)
(0.351425735364 -29.6711143103 0)
(0.560996680257 -29.226786987 0)
(0.639147334972 -28.6515776059 0)
(0.54534426588 -28.0462495449 0)
(0.220684749839 -27.5711887861 0)
(-0.364539091592 -27.4622055348 0)
(-1.15366115937 -27.9755460693 0)
(-1.98713434021 -29.2690809112 0)
(-2.66560867759 -31.289399001 0)
(-3.05434926521 -33.7869324023 0)
(-3.13219410247 -36.4502278969 0)
(-2.96002191012 -39.0212302887 0)
(-2.623851492 -41.3343532756 0)
(-2.1964595504 -43.3030258679 0)
(-1.7252876656 -44.889538864 0)
(-1.23637078848 -46.080470462 0)
(-0.742137488413 -46.8731369213 0)
(-0.247310450138 -47.2687556667 0)
(0.336525137301 -26.1363101067 0)
(0.892831027913 -25.6171126493 0)
(1.13756901841 -24.7566961804 0)
(0.979847349035 -23.8518138809 0)
(0.457286502927 -23.2126866574 0)
(-0.287767008645 -23.0668935695 0)
(-1.06666507998 -23.4965418634 0)
(-1.70729931068 -24.4432933717 0)
(-2.08182445427 -25.7574900252 0)
(-2.11098918984 -27.2239512147 0)
(-1.78793319079 -28.5759474552 0)
(-1.2077447307 -29.5634690673 0)
(-0.537314672965 -30.063774104 0)
(0.0701771900083 -30.1089587568 0)
(0.533200049688 -29.8147354561 0)
(0.832633728794 -29.2982713403 0)
(0.956095981522 -28.6383841209 0)
(0.844603982517 -27.9112094878 0)
(0.399546510369 -27.2728519771 0)
(-0.439897425851 -26.9969975177 0)
(-1.59963636271 -27.4127698934 0)
(-2.83481908082 -28.7420579326 0)
(-3.83117943 -30.9220670945 0)
(-4.38334783628 -33.6258385898 0)
(-4.47197985635 -36.4694470694 0)
(-4.20153375007 -39.1643024167 0)
(-3.7056976212 -41.5480891725 0)
(-3.09073063937 -43.5512316557 0)
(-2.42187482959 -45.1521418473 0)
(-1.7329438914 -46.3476685252 0)
(-1.0392888256 -47.1408493507 0)
(-0.346191537859 -47.5360173601 0)
(0.480951142508 -26.5365048628 0)
(1.27675850664 -25.8755828105 0)
(1.62932027289 -24.7787666423 0)
(1.41161476382 -23.6228227142 0)
(0.681514124499 -22.7946779473 0)
(-0.354292537746 -22.5721038381 0)
(-1.42781837171 -23.040850507 0)
(-2.30554835238 -24.1134443121 0)
(-2.81988408795 -25.6142603376 0)
(-2.85932347861 -27.3017293296 0)
(-2.40461392282 -28.8531106858 0)
(-1.59060801173 -29.9463694115 0)
(-0.6654141402 -30.4382507474 0)
(0.15092746233 -30.4022663531 0)
(0.756769443589 -30.0077887877 0)
(1.14917234786 -29.3989701312 0)
(1.33267826122 -28.6348558172 0)
(1.22811033777 -27.746305158 0)
(0.677790734932 -26.875753328 0)
(-0.434498049738 -26.3503171246 0)
(-2.02619136682 -26.6126894851 0)
(-3.74178294078 -27.9931513554 0)
(-5.10749900622 -30.4143970486 0)
(-5.82803925266 -33.4202674691 0)
(-5.90142601591 -36.5162694963 0)
(-5.49934296164 -39.3755250772 0)
(-4.81731611153 -41.8473634786 0)
(-3.99848588784 -43.8903877969 0)
(-3.12350610031 -45.5065022346 0)
(-2.23072454017 -46.7058820633 0)
(-1.33631190587 -47.4985028379 0)
(-0.444894454809 -47.892489447 0)
(0.666986163483 -27.0999493849 0)
(1.77170013815 -26.2409725752 0)
(2.26394906651 -24.8134522705 0)
(1.97189169653 -23.3095343676 0)
(0.982645940987 -22.2227410164 0)
(-0.410853288462 -21.9017143826 0)
(-1.83733531699 -22.4311858744 0)
(-2.99400422598 -23.6732708924 0)
(-3.67596696301 -25.4208133287 0)
(-3.73041436396 -27.409668641 0)
(-3.11025323171 -29.240602067 0)
(-2.00031476149 -30.4750256316 0)
(-0.765263143794 -30.9396759985 0)
(0.285408169873 -30.7797129464 0)
(1.03484816066 -30.2484505567 0)
(1.51910021405 -29.5320080178 0)
(1.7824284681 -28.6554393949 0)
(1.7241552271 -27.5694002585 0)
(1.09754052708 -26.3843947153 0)
(-0.308365504408 -25.4982685073 0)
(-2.42105347813 -25.5243085185 0)
(-4.73567286254 -26.974997608 0)
(-6.54473748683 -29.7513362254 0)
(-7.43428406015 -33.1828231705 0)
(-7.44960866043 -36.6128848696 0)
(-6.86708074124 -39.6741879904 0)
(-5.96312898103 -42.2444284382 0)
(-4.92030001734 -44.3268781385 0)
(-3.82962196279 -45.955671624 0)
(-2.72894419307 -47.1564235131 0)
(-1.63259251745 -47.9464537356 0)
(-0.543184842411 -48.3380756731 0)
(0.910439547376 -27.8762601058 0)
(2.42000706383 -26.7465426562 0)
(3.0950393767 -24.8651708422 0)
(2.70697039087 -22.8897096629 0)
(1.38542411697 -21.4569132986 0)
(-0.458514966721 -21.0160233071 0)
(-2.3135966266 -21.6404508197 0)
(-3.80036207953 -23.1035698076 0)
(-4.68808296224 -25.1636028601 0)
(-4.76921784779 -27.5533607327 0)
(-3.93729241813 -29.7731654849 0)
(-2.44014497745 -31.1916957185 0)
(-0.817757797589 -31.5924056062 0)
(0.496540183208 -31.2446770888 0)
(1.38062190787 -30.5296153725 0)
(1.9456779288 -29.6987848039 0)
(2.31398214089 -28.7215900222 0)
(2.36363267754 -27.4099328017 0)
(1.7133566105 -25.8105271632 0)
(-0.00445495134755 -24.4099473261 0)
(-2.76455591715 -24.0711685972 0)
(-5.85529679423 -25.6165686495 0)
(-8.21141178746 -28.9154568824 0)
(-9.25881357473 -32.936616783 0)
(-9.14710842585 -36.7925345219 0)
(-8.31511474595 -40.0864533843 0)
(-7.14366118556 -42.754285993 0)
(-5.85410748074 -44.8676484864 0)
(-4.53827878766 -46.5027324773 0)
(-3.22611559598 -47.7005333071 0)
(-1.92713798584 -48.484894888 0)
(-0.640705423565 -48.8724432667 0)
(1.23184488826 -28.9332465118 0)
(3.27724476996 -27.4381876301 0)
(4.19236556315 -24.9384597962 0)
(3.67602046829 -22.3320737295 0)
(1.91948911892 -20.4407625291 0)
(-0.502622048995 -19.8614353568 0)
(-2.88110856727 -20.637242919 0)
(-4.75558024619 -22.381606982 0)
(-5.90086242553 -24.8206723926 0)
(-6.03519567633 -27.7359771529 0)
(-4.92942072463 -30.5021728324 0)
(-2.90993482217 -32.1585863414 0)
(-0.791753828932 -32.427602125 0)
(0.816803286723 -31.7963836225 0)
(1.80779430311 -30.834156807 0)
(2.42311288922 -29.8960968204 0)
(2.92685446921 -28.8647999334 0)
(3.17968665659 -27.3153443151 0)
(2.59753326489 -25.1794061298 0)
(0.561313778582 -23.0481802388 0)
(-3.02436413983 -22.1386193338 0)
(-7.15781700512 -23.8111473498 0)
(-10.2047615536 -27.8902416709 0)
(-11.3728228799 -32.7228892675 0)
(-11.0245269611 -37.1038344643 0)
(-9.84795647678 -40.6463962056 0)
(-8.35372653208 -43.393930363 0)
(-6.79452325951 -45.5191769402 0)
(-5.24606437316 -47.1503137265 0)
(-3.72002539841 -48.3392014529 0)
(-2.21854749727 -49.1137494613 0)
(-0.736959031782 -49.4949134053 0)
(1.65796898825 -30.3623879751 0)
(4.41740042166 -28.3792984627 0)
(5.64809632697 -25.0365913096 0)
(4.95581902441 -21.5936528416 0)
(2.62074330334 -19.0943921728 0)
(-0.556755161702 -18.3656275261 0)
(-3.57368243921 -19.3892401556 0)
(-5.89207681634 -21.4830960758 0)
(-7.36526804767 -24.3555738413 0)
(-7.60996806767 -27.9525086168 0)
(-6.14859701241 -31.5049738481 0)
(-3.40285962373 -33.4683321835 0)
(-0.63665643811 -33.483468756 0)
(1.29326284218 -32.4260186513 0)
(2.33076530891 -31.1273715919 0)
(2.93035636561 -30.110957653 0)
(3.60435839356 -29.1313013215 0)
(4.20632957934 -27.3606321451 0)
(3.84693864862 -24.5398730079 0)
(1.51593844664 -21.3733102228 0)
(-3.14603947266 -19.5524908434 0)
(-8.73110796276 -21.3957873814 0)
(-12.6672827463 -26.6682230308 0)
(-13.8656099714 -32.6136368315 0)
(-13.1088618949 -37.61628366 0)
(-11.4601626953 -41.3966680129 0)
(-9.58005155288 -44.180734838 0)
(-7.73229916248 -46.285835602 0)
(-5.94829104398 -47.9000682519 0)
(-4.20783346339 -49.0730558559 0)
(-2.50499396205 -49.8325864192 0)
(-0.831287395567 -50.2043332394 0)
(2.22338964449 -32.2858541394 0)
(5.94014310274 -29.658770261 0)
(7.58518837369 -25.1581063074 0)
(6.64712003668 -20.6174453648 0)
(3.53350177666 -17.3033204559 0)
(-0.650046040366 -16.4294460556 0)
(-4.43984284209 -17.8711958062 0)
(-7.23874708907 -20.3872517022 0)
(-9.13556869605 -23.7064711309 0)
(-9.60989567971 -28.1770389298 0)
(-7.68733250801 -32.9016697441 0)
(-3.89918227613 -35.2614316241 0)
(-0.270597062833 -34.8034032753 0)
(1.99485186877 -33.1114562968 0)
(2.96532480226 -31.3450880532 0)
(3.42114802443 -30.3112338724 0)
(4.30201722319 -29.5896932237 0)
(5.47540081338 -27.6620959399 0)
(5.59119422606 -23.9799592493 0)
(3.05500486084 -19.3547206071 0)
(-3.03560271915 -16.0426808414 0)
(-10.7156830988 -18.1152701065 0)
(-15.8136862786 -25.2700088224 0)
(-16.8468531945 -32.732122857 0)
(-15.4160425518 -38.4263715091 0)
(-13.1301820658 -42.388124165 0)
(-10.7983103267 -45.1294014593 0)
(-8.65418996647 -47.1673407712 0)
(-6.63967450007 -48.752272967 0)
(-4.68628448206 -49.9023967484 0)
(-2.78418618904 -50.6405579926 0)
(-0.922832441879 -50.9989038276 0)
(2.97151092746 -34.8648223025 0)
(7.98127433767 -31.4052718183 0)
(10.1687587751 -25.2881134141 0)
(8.88321195014 -19.332907794 0)
(4.71474295792 -14.9002797174 0)
(-0.840692836857 -13.9122627612 0)
(-5.55258526249 -16.0822994789 0)
(-8.80971447866 -19.0881660918 0)
(-11.2601616615 -22.7668945806 0)
(-12.2075673743 -28.3352168475 0)
(-9.69079335957 -34.8865150679 0)
(-4.35372638933 -37.7556192939 0)
(0.438331225536 -36.4281026056 0)
(3.0224204532 -33.8113884076 0)
(3.73087652113 -31.3751451281 0)
(3.80805378035 -30.4284721032 0)
(4.9289273598 -30.3442016514 0)
(7.01119656658 -28.3963344888 0)
(8.00062631503 -23.6494869974 0)
(5.48457765059 -17.001049502 0)
(-2.52631422236 -11.1795653192 0)
(-13.3447719533 -13.556867947 0)
(-19.9757091216 -23.7875720682 0)
(-20.4437913148 -33.2852312342 0)
(-17.9368625489 -39.6622850772 0)
(-14.8116776704 -43.6774437864 0)
(-11.969659856 -46.2466591497 0)
(-9.54373491632 -48.1548582268 0)
(-7.31581903255 -49.7059602472 0)
(-5.15197597617 -50.8274885431 0)
(-3.05324750169 -51.536337558 0)
(-1.01046031309 -51.8759227572 0)
(3.95316488658 -38.3076032543 0)
(10.7284975469 -33.815007703 0)
(13.6213703858 -25.3763123007 0)
(11.841036885 -17.6662225274 0)
(6.24382429308 -11.6343740382 0)
(-1.24105592107 -10.6036777751 0)
(-7.02779450739 -14.0824006365 0)
(-10.5810446399 -17.6186681902 0)
(-13.7590940739 -21.3525612876 0)
(-15.6697059234 -28.2451230058 0)
(-12.3975337312 -37.7891875998 0)
(-4.66997604497 -41.2959844887 0)
(1.7015183803 -38.3717938256 0)
(4.52133060752 -34.4625245014 0)
(4.65678295446 -31.028739745 0)
(3.93661976276 -30.3256439716 0)
(5.3180860304 -31.5597444161 0)
(8.82275814039 -29.8250232169 0)
(11.2888367195 -23.7886607429 0)
(9.28996569991 -14.4344451358 0)
(-1.31351194164 -4.26018928011 0)
(-17.0196864733 -7.02836823104 0)
(-25.6778679222 -22.481667689 0)
(-24.784209699 -34.6118367917 0)
(-20.6121488279 -41.4820768659 0)
(-16.422369102 -45.3217004484 0)
(-13.0370175468 -47.522626544 0)
(-10.3838405152 -49.2251057362 0)
(-7.97598965821 -50.760542619 0)
(-5.60147313745 -51.8492329336 0)
(-3.30840329608 -52.51801095 0)
(-1.09262504146 -52.8314011859 0)
(5.21780870309 -42.8726652582 0)
(14.4469198145 -37.2103151202 0)
(18.2431513629 -25.2812445109 0)
(15.7541810814 -15.5786852505 0)
(8.2460153341 -7.11668268893 0)
(-2.06470613598 -6.16607881812 0)
(-9.06008047006 -12.0663224942 0)
(-12.4447948042 -16.0978420507 0)
(-16.5733890693 -19.1465010607 0)
(-20.4258805304 -27.4899557681 0)
(-16.216224101 -42.1988285112 0)
(-4.6450295022 -46.4415323071 0)
(3.85506121915 -40.5588908605 0)
(6.6939474935 -34.991581969 0)
(5.79931678603 -29.9960948066 0)
(3.54255144476 -29.734595227 0)
(5.17923773716 -33.5132214849 0)
(10.8967384032 -32.3244669419 0)
(15.6959153556 -24.7522106438 0)
(15.248813382 -12.0673209975 0)
(1.17672423003 5.90070652273 0)
(-22.4555111577 2.67749344754 0)
(-33.7674434019 -22.0005305978 0)
(-29.9439959032 -37.2475271182 0)
(-23.2917943772 -44.0536925441 0)
(-17.8319525095 -47.3698391256 0)
(-13.9213624999 -48.9174036986 0)
(-11.1626929538 -50.331307121 0)
(-8.62788263126 -51.9210964237 0)
(-6.0307101417 -52.9702295317 0)
(-3.54433162784 -53.5828439096 0)
(-1.16715543105 -53.8595411543 0)
(6.78433995559 -48.8526612203 0)
(19.5242079206 -42.1715734648 0)
(24.4371853207 -24.6286521973 0)
(20.9233177959 -13.1799467841 0)
(10.9501275093 -0.719883610725 0)
(-3.7158758237 -0.0143712875087 0)
(-11.9936761237 -10.5159231144 0)
(-14.1211339232 -14.8211250038 0)
(-19.4551509326 -15.6150234921 0)
(-27.1958696486 -25.141614793 0)
(-21.8733220007 -49.2230906376 0)
(-3.85000721965 -54.1163222949 0)
(7.42649354938 -42.6647959855 0)
(9.8027286345 -35.3750152528 0)
(7.28527632544 -27.7769612979 0)
(2.17805642363 -28.130226675 0)
(4.02315017297 -36.7049737263 0)
(13.2032635609 -36.4158960085 0)
(21.4174096916 -26.9896373955 0)
(24.6164242832 -11.0162624057 0)
(6.05889528089 21.3645299492 0)
(-30.9703050336 17.7523149958 0)
(-45.6403782051 -23.8720190945 0)
(-35.8107906721 -41.9884529643 0)
(-25.6733048316 -47.4929186712 0)
(-18.8542246793 -49.8552469827 0)
(-14.5177515445 -50.3406845336 0)
(-11.8856868778 -51.3886083336 0)
(-9.29545086356 -53.2120421999 0)
(-6.4323468804 -54.1955965685 0)
(-3.75305910738 -54.726786598 0)
(-1.23097366379 -54.952072638 0)
(8.55835258082 -56.5024871479 0)
(26.558924326 -49.8477855463 0)
(32.7389647032 -22.4518429967 0)
(27.7085653747 -11.0332494476 0)
(14.8288030824 8.61651653558 0)
(-6.96272588779 8.94015964465 0)
(-16.4634573282 -10.5134949238 0)
(-14.9943449931 -14.4210413433 0)
(-21.7336339638 -9.89909418142 0)
(-37.2299141031 -19.1532212907 0)
(-30.7035778519 -61.0430409902 0)
(-1.36588217616 -65.8757938095 0)
(13.2257147402 -43.7285273943 0)
(14.1378648373 -35.8335273844 0)
(9.42171107492 -23.5677482037 0)
(-0.921454769416 -24.468029732 0)
(1.0364030704 -42.1100421159 0)
(15.7544065686 -42.7887444816 0)
(28.395732157 -30.8606403989 0)
(39.4258970543 -14.0634573205 0)
(15.5610129308 45.8305958722 0)
(-45.0737856795 42.3342055218 0)
(-63.6378273819 -31.6166749497 0)
(-41.7544456916 -49.8787285144 0)
(-27.2251913864 -51.7140889156 0)
(-19.2558354407 -52.8062780443 0)
(-14.6880431753 -51.6196819126 0)
(-12.5983717869 -52.2483322622 0)
(-10.0313767487 -54.7094945473 0)
(-6.78808234076 -55.5306694823 0)
(-3.92256966258 -55.9434456041 0)
(-1.27979845103 -56.0973006507 0)
(10.1116907564 -65.8157418305 0)
(36.5495299962 -62.7090654793 0)
(43.84445337 -16.280293169 0)
(36.4574975621 -10.9438508247 0)
(20.9368320554 22.7850661006 0)
(-13.2808815534 22.839702016 0)
(-23.6742766176 -14.3968793315 0)
(-13.813933552 -16.1275706637 0)
(-21.8212409063 -0.738321956311 0)
(-52.767843053 -5.00505005564 0)
(-45.2346082601 -82.1264049737 0)
(4.80724957832 -84.3793359896 0)
(22.4476267619 -41.2280873291 0)
(19.8831182298 -37.3834578107 0)
(12.9680251517 -16.0655640304 0)
(-7.09309053245 -16.6188131434 0)
(-5.13720720185 -51.7542512726 0)
(18.8279644194 -52.311449404 0)
(35.7800532722 -35.9468288284 0)
(62.9620424187 -27.8825004311 0)
(34.2577267021 86.1469726529 0)
(-69.6939404445 84.5324378641 0)
(-91.7468452232 -53.2810947282 0)
(-45.8594976551 -61.8733556697 0)
(-27.1370795966 -56.1186568683 0)
(-18.8070211778 -56.324590303 0)
(-14.2387786535 -52.4426080777 0)
(-13.4305931951 -52.6476409946 0)
(-10.9366194736 -56.6145106993 0)
(-7.04932240879 -56.9655862495 0)
(-4.03637469158 -57.2226302189 0)
(-1.30790118709 -57.278835691 0)
)
;

boundaryField
{
    left
    {
        type            calculated;
        value           nonuniform List<vector> 
16
(
(0 -25.6138896116 0)
(0 -25.6947792665 0)
(0 -25.8638527552 0)
(0 -26.1363101067 0)
(0 -26.5365048628 0)
(0 -27.0999493849 0)
(0 -27.8762601058 0)
(0 -28.9332465118 0)
(0 -30.3623879751 0)
(0 -32.2858541394 0)
(0 -34.8648223025 0)
(0 -38.3076032543 0)
(0 -42.8726652582 0)
(0 -48.8526612203 0)
(0 -56.5024871479 0)
(0 -65.8157418305 0)
)
;
    }
    right
    {
        type            calculated;
        value           nonuniform List<vector> 
16
(
(0 -47.0016514441 0)
(0 -47.0906636151 0)
(0 -47.2687556667 0)
(0 -47.5360173601 0)
(0 -47.892489447 0)
(0 -48.3380756731 0)
(0 -48.8724432667 0)
(0 -49.4949134053 0)
(0 -50.2043332394 0)
(0 -50.9989038276 0)
(0 -51.8759227572 0)
(0 -52.8314011859 0)
(0 -53.8595411543 0)
(0 -54.952072638 0)
(0 -56.0973006507 0)
(0 -57.278835691 0)
)
;
    }
    interface
    {
        type            calculated;
        value           nonuniform List<vector> 
32
(
(10.1116907564 -70.8606649854 0)
(36.5495299962 -70.8606649854 0)
(43.84445337 -11.7521903435 0)
(36.4574975621 -11.7521903435 0)
(20.9368320554 31.3827994461 0)
(-13.2808815534 31.3827994461 0)
(-23.6742766176 -17.7084687557 0)
(-13.813933552 -17.7084687557 0)
(-21.8212409063 4.88700023028 0)
(-52.767843053 4.88700023028 0)
(-45.2346082601 -95.737450005 0)
(4.80724957832 -95.737450005 0)
(22.4476267619 -38.6333417339 0)
(19.8831182298 -38.6333417339 0)
(12.9680251517 -11.2893087064 0)
(-7.09309053245 -11.2893087064 0)
(-5.13720720185 -57.9801401386 0)
(18.8279644194 -57.9801401386 0)
(35.7800532722 -38.6595266536 0)
(62.9620424187 -38.6595266536 0)
(34.2577267021 111.383494852 0)
(-69.6939404445 111.383494852 0)
(-91.7468452232 -68.9920208508 0)
(-45.8594976551 -68.9920208508 0)
(-27.1370795966 -58.2469372768 0)
(-18.8070211778 -58.2469372768 0)
(-14.2387786535 -52.6900967473 0)
(-13.4305931951 -52.6900967473 0)
(-10.9366194736 -57.7050163578 0)
(-7.04932240879 -57.7050163578 0)
(-4.03637469158 -57.8762951249 0)
(-1.30790118709 -57.8762951249 0)
)
;
    }
    bottom
    {
        type            calculated;
        value           nonuniform List<vector> 
32
(
(0.0406459655181 -25.5941135949 0)
(0.107707266494 -25.2689458707 0)
(0.136747371032 -24.7324554629 0)
(0.116358579547 -24.1749669025 0)
(0.0505353624391 -23.8015868266 0)
(-0.0438723813531 -23.770684003 0)
(-0.143665197501 -24.1525658774 0)
(-0.22640486996 -24.920005583 0)
(-0.274795528435 -25.9638048371 0)
(-0.278913057805 -27.1183698105 0)
(-0.23882073348 -28.1951092995 0)
(-0.166113751467 -29.0289356783 0)
(-0.0800439508595 -29.5240193113 0)
(0.000785368278855 -29.6692872852 0)
(0.0644432986292 -29.517736365 0)
(0.105312104017 -29.1537408961 0)
(0.118986901686 -28.6752395329 0)
(0.0977089445485 -28.2018456827 0)
(0.0317900931122 -27.8935679765 0)
(-0.0822976037583 -27.9475249378 0)
(-0.232693578975 -28.5519488066 0)
(-0.390299798671 -29.8090735696 0)
(-0.519687030419 -31.674347196 0)
(-0.596126403583 -33.9665698129 0)
(-0.61423162573 -36.4433584246 0)
(-0.583724047456 -38.8804228188 0)
(-0.519988030348 -41.1131508042 0)
(-0.436897844854 -43.0403270615 0)
(-0.344030422697 -44.6083335631 0)
(-0.246925378391 -45.7925704431 0)
(-0.148354142709 -46.5837365902 0)
(-0.0494583743205 -46.9794035848 0)
)
;
    }
    defaultFaces
    {
        type            empty;
    }
}


// ************************************************************************* //
