/*--------------------------------*- C++ -*----------------------------------*\
| =========                 |                                                 |
| \\      /  F ield         | OpenFOAM: The Open Source CFD Toolbox           |
|  \\    /   O peration     | Version:  2112                                  |
|   \\  /    A nd           | Website:  www.openfoam.com                      |
|    \\/     M anipulation  |                                                 |
\*---------------------------------------------------------------------------*/
FoamFile
{
    version     2.0;
    format      ascii;
    arch        "LSB;label=32;scalar=64";
    class       volScalarField;
    location    "0.4";
    object      gradTx;
}
// * * * * * * * * * * * * * * * * * * * * * * * * * * * * * * * * * * * * * //

dimensions      [0 -1 0 1 0 0 0];

internalField   nonuniform List<scalar> 
512
(
0.0406459655181
0.107707266494
0.136747371032
0.116358579547
0.0505353624391
-0.0438723813531
-0.143665197501
-0.22640486996
-0.274795528435
-0.278913057805
-0.23882073348
-0.166113751467
-0.0800439508595
0.000785368278855
0.0644432986292
0.105312104017
0.118986901686
0.0977089445485
0.0317900931122
-0.0822976037583
-0.232693578975
-0.390299798671
-0.519687030419
-0.596126403583
-0.61423162573
-0.583724047456
-0.519988030348
-0.436897844854
-0.344030422697
-0.246925378391
-0.148354142709
-0.0494583743205
0.125503463008
0.332650864034
0.422637446012
0.360477026879
0.15880119462
-0.130206998334
-0.435189132915
-0.687733262679
-0.83537752445
-0.847700492213
-0.724516395933
-0.501574497362
-0.238705194745
0.00677346431672
0.199156570631
0.322865376576
0.365827260461
0.304409572647
0.107524505343
-0.237718784264
-0.69619867453
-1.17789261495
-1.57225368448
-1.80293338833
-1.85483091314
-1.75947106071
-1.56479983158
-1.31313784521
-1.03315253255
-0.741144862752
-0.445146223269
-0.148382165162
0.22135241377
0.586951543477
0.746670888707
0.639610002301
0.289053968797
-0.212364934711
-0.739618470612
-1.1750742715
-1.42955516645
-1.45009476363
-1.23485499651
-0.846694687311
-0.392669295445
0.0264081383648
0.351425735364
0.560996680257
0.639147334972
0.54534426588
0.220684749839
-0.364539091592
-1.15366115937
-1.98713434021
-2.66560867759
-3.05434926521
-3.13219410247
-2.96002191012
-2.623851492
-2.1964595504
-1.7252876656
-1.23637078848
-0.742137488413
-0.247310450138
0.336525137301
0.892831027913
1.13756901841
0.979847349035
0.457286502927
-0.287767008645
-1.06666507998
-1.70729931068
-2.08182445427
-2.11098918984
-1.78793319079
-1.2077447307
-0.537314672965
0.0701771900083
0.533200049688
0.832633728794
0.956095981522
0.844603982517
0.399546510369
-0.439897425851
-1.59963636271
-2.83481908082
-3.83117943
-4.38334783628
-4.47197985635
-4.20153375007
-3.7056976212
-3.09073063937
-2.42187482959
-1.7329438914
-1.0392888256
-0.346191537859
0.480951142508
1.27675850664
1.62932027289
1.41161476382
0.681514124499
-0.354292537746
-1.42781837171
-2.30554835238
-2.81988408795
-2.85932347861
-2.40461392282
-1.59060801173
-0.6654141402
0.15092746233
0.756769443589
1.14917234786
1.33267826122
1.22811033777
0.677790734932
-0.434498049738
-2.02619136682
-3.74178294078
-5.10749900622
-5.82803925266
-5.90142601591
-5.49934296164
-4.81731611153
-3.99848588784
-3.12350610031
-2.23072454017
-1.33631190587
-0.444894454809
0.666986163483
1.77170013815
2.26394906651
1.97189169653
0.982645940987
-0.410853288462
-1.83733531699
-2.99400422598
-3.67596696301
-3.73041436396
-3.11025323171
-2.00031476149
-0.765263143794
0.285408169873
1.03484816066
1.51910021405
1.7824284681
1.7241552271
1.09754052708
-0.308365504408
-2.42105347813
-4.73567286254
-6.54473748683
-7.43428406015
-7.44960866043
-6.86708074124
-5.96312898103
-4.92030001734
-3.82962196279
-2.72894419307
-1.63259251745
-0.543184842411
0.910439547376
2.42000706383
3.0950393767
2.70697039087
1.38542411697
-0.458514966721
-2.3135966266
-3.80036207953
-4.68808296224
-4.76921784779
-3.93729241813
-2.44014497745
-0.817757797589
0.496540183208
1.38062190787
1.9456779288
2.31398214089
2.36363267754
1.7133566105
-0.00445495134755
-2.76455591715
-5.85529679423
-8.21141178746
-9.25881357473
-9.14710842585
-8.31511474595
-7.14366118556
-5.85410748074
-4.53827878766
-3.22611559598
-1.92713798584
-0.640705423565
1.23184488826
3.27724476996
4.19236556315
3.67602046829
1.91948911892
-0.502622048995
-2.88110856727
-4.75558024619
-5.90086242553
-6.03519567633
-4.92942072463
-2.90993482217
-0.791753828932
0.816803286723
1.80779430311
2.42311288922
2.92685446921
3.17968665659
2.59753326489
0.561313778582
-3.02436413983
-7.15781700512
-10.2047615536
-11.3728228799
-11.0245269611
-9.84795647678
-8.35372653208
-6.79452325951
-5.24606437316
-3.72002539841
-2.21854749727
-0.736959031782
1.65796898825
4.41740042166
5.64809632697
4.95581902441
2.62074330334
-0.556755161702
-3.57368243921
-5.89207681634
-7.36526804767
-7.60996806767
-6.14859701241
-3.40285962373
-0.63665643811
1.29326284218
2.33076530891
2.93035636561
3.60435839356
4.20632957934
3.84693864862
1.51593844664
-3.14603947266
-8.73110796276
-12.6672827463
-13.8656099714
-13.1088618949
-11.4601626953
-9.58005155288
-7.73229916248
-5.94829104398
-4.20783346339
-2.50499396205
-0.831287395567
2.22338964449
5.94014310274
7.58518837369
6.64712003668
3.53350177666
-0.650046040366
-4.43984284209
-7.23874708907
-9.13556869605
-9.60989567971
-7.68733250801
-3.89918227613
-0.270597062833
1.99485186877
2.96532480226
3.42114802443
4.30201722319
5.47540081338
5.59119422606
3.05500486084
-3.03560271915
-10.7156830988
-15.8136862786
-16.8468531945
-15.4160425518
-13.1301820658
-10.7983103267
-8.65418996647
-6.63967450007
-4.68628448206
-2.78418618904
-0.922832441879
2.97151092746
7.98127433767
10.1687587751
8.88321195014
4.71474295792
-0.840692836857
-5.55258526249
-8.80971447866
-11.2601616615
-12.2075673743
-9.69079335957
-4.35372638933
0.438331225536
3.0224204532
3.73087652113
3.80805378035
4.9289273598
7.01119656658
8.00062631503
5.48457765059
-2.52631422236
-13.3447719533
-19.9757091216
-20.4437913148
-17.9368625489
-14.8116776704
-11.969659856
-9.54373491632
-7.31581903255
-5.15197597617
-3.05324750169
-1.01046031309
3.95316488658
10.7284975469
13.6213703858
11.841036885
6.24382429308
-1.24105592107
-7.02779450739
-10.5810446399
-13.7590940739
-15.6697059234
-12.3975337312
-4.66997604497
1.7015183803
4.52133060752
4.65678295446
3.93661976276
5.3180860304
8.82275814039
11.2888367195
9.28996569991
-1.31351194164
-17.0196864733
-25.6778679222
-24.784209699
-20.6121488279
-16.422369102
-13.0370175468
-10.3838405152
-7.97598965821
-5.60147313745
-3.30840329608
-1.09262504146
5.21780870309
14.4469198145
18.2431513629
15.7541810814
8.2460153341
-2.06470613598
-9.06008047006
-12.4447948042
-16.5733890693
-20.4258805304
-16.216224101
-4.6450295022
3.85506121915
6.6939474935
5.79931678603
3.54255144476
5.17923773716
10.8967384032
15.6959153556
15.248813382
1.17672423003
-22.4555111577
-33.7674434019
-29.9439959032
-23.2917943772
-17.8319525095
-13.9213624999
-11.1626929538
-8.62788263126
-6.0307101417
-3.54433162784
-1.16715543105
6.78433995559
19.5242079206
24.4371853207
20.9233177959
10.9501275093
-3.7158758237
-11.9936761237
-14.1211339232
-19.4551509326
-27.1958696486
-21.8733220007
-3.85000721965
7.42649354938
9.8027286345
7.28527632544
2.17805642363
4.02315017297
13.2032635609
21.4174096916
24.6164242832
6.05889528089
-30.9703050336
-45.6403782051
-35.8107906721
-25.6733048316
-18.8542246793
-14.5177515445
-11.8856868778
-9.29545086356
-6.4323468804
-3.75305910738
-1.23097366379
8.55835258082
26.558924326
32.7389647032
27.7085653747
14.8288030824
-6.96272588779
-16.4634573282
-14.9943449931
-21.7336339638
-37.2299141031
-30.7035778519
-1.36588217616
13.2257147402
14.1378648373
9.42171107492
-0.921454769416
1.0364030704
15.7544065686
28.395732157
39.4258970543
15.5610129308
-45.0737856795
-63.6378273819
-41.7544456916
-27.2251913864
-19.2558354407
-14.6880431753
-12.5983717869
-10.0313767487
-6.78808234076
-3.92256966258
-1.27979845103
10.1116907564
36.5495299962
43.84445337
36.4574975621
20.9368320554
-13.2808815534
-23.6742766176
-13.813933552
-21.8212409063
-52.767843053
-45.2346082601
4.80724957832
22.4476267619
19.8831182298
12.9680251517
-7.09309053245
-5.13720720185
18.8279644194
35.7800532722
62.9620424187
34.2577267021
-69.6939404445
-91.7468452232
-45.8594976551
-27.1370795966
-18.8070211778
-14.2387786535
-13.4305931951
-10.9366194736
-7.04932240879
-4.03637469158
-1.30790118709
)
;

boundaryField
{
    left
    {
        type            calculated;
        value           uniform 0;
    }
    right
    {
        type            calculated;
        value           uniform 0;
    }
    interface
    {
        type            calculated;
        value           nonuniform List<scalar> 
32
(
10.1116907564
36.5495299962
43.84445337
36.4574975621
20.9368320554
-13.2808815534
-23.6742766176
-13.813933552
-21.8212409063
-52.767843053
-45.2346082601
4.80724957832
22.4476267619
19.8831182298
12.9680251517
-7.09309053245
-5.13720720185
18.8279644194
35.7800532722
62.9620424187
34.2577267021
-69.6939404445
-91.7468452232
-45.8594976551
-27.1370795966
-18.8070211778
-14.2387786535
-13.4305931951
-10.9366194736
-7.04932240879
-4.03637469158
-1.30790118709
)
;
    }
    bottom
    {
        type            calculated;
        value           nonuniform List<scalar> 
32
(
0.0406459655181
0.107707266494
0.136747371032
0.116358579547
0.0505353624391
-0.0438723813531
-0.143665197501
-0.22640486996
-0.274795528435
-0.278913057805
-0.23882073348
-0.166113751467
-0.0800439508595
0.000785368278855
0.0644432986292
0.105312104017
0.118986901686
0.0977089445485
0.0317900931122
-0.0822976037583
-0.232693578975
-0.390299798671
-0.519687030419
-0.596126403583
-0.61423162573
-0.583724047456
-0.519988030348
-0.436897844854
-0.344030422697
-0.246925378391
-0.148354142709
-0.0494583743205
)
;
    }
    defaultFaces
    {
        type            empty;
    }
}


// ************************************************************************* //
