/*--------------------------------*- C++ -*----------------------------------*\
| =========                 |                                                 |
| \\      /  F ield         | OpenFOAM: The Open Source CFD Toolbox           |
|  \\    /   O peration     | Version:  2112                                  |
|   \\  /    A nd           | Website:  www.openfoam.com                      |
|    \\/     M anipulation  |                                                 |
\*---------------------------------------------------------------------------*/
FoamFile
{
    version     2.0;
    format      ascii;
    arch        "LSB;label=32;scalar=64";
    class       volScalarField;
    location    "0.4";
    object      gradTy;
}
// * * * * * * * * * * * * * * * * * * * * * * * * * * * * * * * * * * * * * //

dimensions      [0 -1 0 1 0 0 0];

internalField   nonuniform List<scalar> 
512
(
-25.6138896116
-25.2815907546
-24.7331733506
-24.1628211205
-23.7795021377
-23.7441480064
-24.1276608971
-24.9018566672
-25.9559371624
-27.122202773
-28.2091642624
-29.0488770318
-29.5445407601
-29.686375323
-29.5294230949
-29.1591755845
-28.6730681337
-28.1895472602
-27.8688310993
-27.9109180633
-28.5088638753
-29.7687025703
-31.6452487026
-33.9525840001
-36.4433682864
-38.8907090778
-41.1297585028
-43.0602848017
-44.6298298829
-45.8146507122
-46.6059703652
-47.0016514441
-25.6947792665
-25.33336637
-24.7362907125
-24.1135193346
-23.689787867
-23.6364821219
-24.0267729737
-24.8283886681
-25.9241117768
-27.1379079442
-28.2664751884
-29.1299764702
-29.6276370601
-29.7552271594
-29.57639152
-29.1812622859
-28.6650223675
-28.1409414194
-27.7697517248
-27.7631521059
-28.3342347005
-29.6050872667
-31.5279037836
-33.896930561
-36.4443495068
-38.9328555145
-41.1969452322
-43.1405824378
-44.7160686432
-45.9030969236
-46.6949594634
-47.0906636151
-25.8638527552
-25.4418094066
-24.7434924275
-24.0119462618
-23.5047517831
-23.4149756452
-23.8198718038
-24.6779275393
-25.8590038998
-27.170821399
-28.385581295
-29.2976549887
-29.7979217617
-29.8948739451
-29.6711143103
-29.226786987
-28.6515776059
-28.0462495449
-27.5711887861
-27.4622055348
-27.9755460693
-29.2690809112
-31.289399001
-33.7869324023
-36.4502278969
-39.0212302887
-41.3343532756
-43.3030258679
-44.889538864
-46.080470462
-46.8731369213
-47.2687556667
-26.1363101067
-25.6171126493
-24.7566961804
-23.8518138809
-23.2126866574
-23.0668935695
-23.4965418634
-24.4432933717
-25.7574900252
-27.2239512147
-28.5759474552
-29.5634690673
-30.063774104
-30.1089587568
-29.8147354561
-29.2982713403
-28.6383841209
-27.9112094878
-27.2728519771
-26.9969975177
-27.4127698934
-28.7420579326
-30.9220670945
-33.6258385898
-36.4694470694
-39.1643024167
-41.5480891725
-43.5512316557
-45.1521418473
-46.3476685252
-47.1408493507
-47.5360173601
-26.5365048628
-25.8755828105
-24.7787666423
-23.6228227142
-22.7946779473
-22.5721038381
-23.040850507
-24.1134443121
-25.6142603376
-27.3017293296
-28.8531106858
-29.9463694115
-30.4382507474
-30.4022663531
-30.0077887877
-29.3989701312
-28.6348558172
-27.746305158
-26.875753328
-26.3503171246
-26.6126894851
-27.9931513554
-30.4143970486
-33.4202674691
-36.5162694963
-39.3755250772
-41.8473634786
-43.8903877969
-45.5065022346
-46.7058820633
-47.4985028379
-47.892489447
-27.0999493849
-26.2409725752
-24.8134522705
-23.3095343676
-22.2227410164
-21.9017143826
-22.4311858744
-23.6732708924
-25.4208133287
-27.409668641
-29.240602067
-30.4750256316
-30.9396759985
-30.7797129464
-30.2484505567
-29.5320080178
-28.6554393949
-27.5694002585
-26.3843947153
-25.4982685073
-25.5243085185
-26.974997608
-29.7513362254
-33.1828231705
-36.6128848696
-39.6741879904
-42.2444284382
-44.3268781385
-45.955671624
-47.1564235131
-47.9464537356
-48.3380756731
-27.8762601058
-26.7465426562
-24.8651708422
-22.8897096629
-21.4569132986
-21.0160233071
-21.6404508197
-23.1035698076
-25.1636028601
-27.5533607327
-29.7731654849
-31.1916957185
-31.5924056062
-31.2446770888
-30.5296153725
-29.6987848039
-28.7215900222
-27.4099328017
-25.8105271632
-24.4099473261
-24.0711685972
-25.6165686495
-28.9154568824
-32.936616783
-36.7925345219
-40.0864533843
-42.754285993
-44.8676484864
-46.5027324773
-47.7005333071
-48.484894888
-48.8724432667
-28.9332465118
-27.4381876301
-24.9384597962
-22.3320737295
-20.4407625291
-19.8614353568
-20.637242919
-22.381606982
-24.8206723926
-27.7359771529
-30.5021728324
-32.1585863414
-32.427602125
-31.7963836225
-30.834156807
-29.8960968204
-28.8647999334
-27.3153443151
-25.1794061298
-23.0481802388
-22.1386193338
-23.8111473498
-27.8902416709
-32.7228892675
-37.1038344643
-40.6463962056
-43.393930363
-45.5191769402
-47.1503137265
-48.3392014529
-49.1137494613
-49.4949134053
-30.3623879751
-28.3792984627
-25.0365913096
-21.5936528416
-19.0943921728
-18.3656275261
-19.3892401556
-21.4830960758
-24.3555738413
-27.9525086168
-31.5049738481
-33.4683321835
-33.483468756
-32.4260186513
-31.1273715919
-30.110957653
-29.1313013215
-27.3606321451
-24.5398730079
-21.3733102228
-19.5524908434
-21.3957873814
-26.6682230308
-32.6136368315
-37.61628366
-41.3966680129
-44.180734838
-46.285835602
-47.9000682519
-49.0730558559
-49.8325864192
-50.2043332394
-32.2858541394
-29.658770261
-25.1581063074
-20.6174453648
-17.3033204559
-16.4294460556
-17.8711958062
-20.3872517022
-23.7064711309
-28.1770389298
-32.9016697441
-35.2614316241
-34.8034032753
-33.1114562968
-31.3450880532
-30.3112338724
-29.5896932237
-27.6620959399
-23.9799592493
-19.3547206071
-16.0426808414
-18.1152701065
-25.2700088224
-32.732122857
-38.4263715091
-42.388124165
-45.1294014593
-47.1673407712
-48.752272967
-49.9023967484
-50.6405579926
-50.9989038276
-34.8648223025
-31.4052718183
-25.2881134141
-19.332907794
-14.9002797174
-13.9122627612
-16.0822994789
-19.0881660918
-22.7668945806
-28.3352168475
-34.8865150679
-37.7556192939
-36.4281026056
-33.8113884076
-31.3751451281
-30.4284721032
-30.3442016514
-28.3963344888
-23.6494869974
-17.001049502
-11.1795653192
-13.556867947
-23.7875720682
-33.2852312342
-39.6622850772
-43.6774437864
-46.2466591497
-48.1548582268
-49.7059602472
-50.8274885431
-51.536337558
-51.8759227572
-38.3076032543
-33.815007703
-25.3763123007
-17.6662225274
-11.6343740382
-10.6036777751
-14.0824006365
-17.6186681902
-21.3525612876
-28.2451230058
-37.7891875998
-41.2959844887
-38.3717938256
-34.4625245014
-31.028739745
-30.3256439716
-31.5597444161
-29.8250232169
-23.7886607429
-14.4344451358
-4.26018928011
-7.02836823104
-22.481667689
-34.6118367917
-41.4820768659
-45.3217004484
-47.522626544
-49.2251057362
-50.760542619
-51.8492329336
-52.51801095
-52.8314011859
-42.8726652582
-37.2103151202
-25.2812445109
-15.5786852505
-7.11668268893
-6.16607881812
-12.0663224942
-16.0978420507
-19.1465010607
-27.4899557681
-42.1988285112
-46.4415323071
-40.5588908605
-34.991581969
-29.9960948066
-29.734595227
-33.5132214849
-32.3244669419
-24.7522106438
-12.0673209975
5.90070652273
2.67749344754
-22.0005305978
-37.2475271182
-44.0536925441
-47.3698391256
-48.9174036986
-50.331307121
-51.9210964237
-52.9702295317
-53.5828439096
-53.8595411543
-48.8526612203
-42.1715734648
-24.6286521973
-13.1799467841
-0.719883610725
-0.0143712875087
-10.5159231144
-14.8211250038
-15.6150234921
-25.141614793
-49.2230906376
-54.1163222949
-42.6647959855
-35.3750152528
-27.7769612979
-28.130226675
-36.7049737263
-36.4158960085
-26.9896373955
-11.0162624057
21.3645299492
17.7523149958
-23.8720190945
-41.9884529643
-47.4929186712
-49.8552469827
-50.3406845336
-51.3886083336
-53.2120421999
-54.1955965685
-54.726786598
-54.952072638
-56.5024871479
-49.8477855463
-22.4518429967
-11.0332494476
8.61651653558
8.94015964465
-10.5134949238
-14.4210413433
-9.89909418142
-19.1532212907
-61.0430409902
-65.8757938095
-43.7285273943
-35.8335273844
-23.5677482037
-24.468029732
-42.1100421159
-42.7887444816
-30.8606403989
-14.0634573205
45.8305958722
42.3342055218
-31.6166749497
-49.8787285144
-51.7140889156
-52.8062780443
-51.6196819126
-52.2483322622
-54.7094945473
-55.5306694823
-55.9434456041
-56.0973006507
-65.8157418305
-62.7090654793
-16.280293169
-10.9438508247
22.7850661006
22.839702016
-14.3968793315
-16.1275706637
-0.738321956311
-5.00505005564
-82.1264049737
-84.3793359896
-41.2280873291
-37.3834578107
-16.0655640304
-16.6188131434
-51.7542512726
-52.311449404
-35.9468288284
-27.8825004311
86.1469726529
84.5324378641
-53.2810947282
-61.8733556697
-56.1186568683
-56.324590303
-52.4426080777
-52.6476409946
-56.6145106993
-56.9655862495
-57.2226302189
-57.278835691
)
;

boundaryField
{
    left
    {
        type            calculated;
        value           nonuniform List<scalar> 
16
(
-25.6138896116
-25.6947792665
-25.8638527552
-26.1363101067
-26.5365048628
-27.0999493849
-27.8762601058
-28.9332465118
-30.3623879751
-32.2858541394
-34.8648223025
-38.3076032543
-42.8726652582
-48.8526612203
-56.5024871479
-65.8157418305
)
;
    }
    right
    {
        type            calculated;
        value           nonuniform List<scalar> 
16
(
-47.0016514441
-47.0906636151
-47.2687556667
-47.5360173601
-47.892489447
-48.3380756731
-48.8724432667
-49.4949134053
-50.2043332394
-50.9989038276
-51.8759227572
-52.8314011859
-53.8595411543
-54.952072638
-56.0973006507
-57.278835691
)
;
    }
    interface
    {
        type            calculated;
        value           nonuniform List<scalar> 
32
(
-70.8606649854
-70.8606649854
-11.7521903435
-11.7521903435
31.3827994461
31.3827994461
-17.7084687557
-17.7084687557
4.88700023028
4.88700023028
-95.737450005
-95.737450005
-38.6333417339
-38.6333417339
-11.2893087064
-11.2893087064
-57.9801401386
-57.9801401386
-38.6595266536
-38.6595266536
111.383494852
111.383494852
-68.9920208508
-68.9920208508
-58.2469372768
-58.2469372768
-52.6900967473
-52.6900967473
-57.7050163578
-57.7050163578
-57.8762951249
-57.8762951249
)
;
    }
    bottom
    {
        type            calculated;
        value           nonuniform List<scalar> 
32
(
-25.5941135949
-25.2689458707
-24.7324554629
-24.1749669025
-23.8015868266
-23.770684003
-24.1525658774
-24.920005583
-25.9638048371
-27.1183698105
-28.1951092995
-29.0289356783
-29.5240193113
-29.6692872852
-29.517736365
-29.1537408961
-28.6752395329
-28.2018456827
-27.8935679765
-27.9475249378
-28.5519488066
-29.8090735696
-31.674347196
-33.9665698129
-36.4433584246
-38.8804228188
-41.1131508042
-43.0403270615
-44.6083335631
-45.7925704431
-46.5837365902
-46.9794035848
)
;
    }
    defaultFaces
    {
        type            empty;
    }
}


// ************************************************************************* //
