/*--------------------------------*- C++ -*----------------------------------*\
| =========                 |                                                 |
| \\      /  F ield         | OpenFOAM: The Open Source CFD Toolbox           |
|  \\    /   O peration     | Version:  2112                                  |
|   \\  /    A nd           | Website:  www.openfoam.com                      |
|    \\/     M anipulation  |                                                 |
\*---------------------------------------------------------------------------*/
FoamFile
{
    version     2.0;
    format      ascii;
    arch        "LSB;label=32;scalar=64";
    class       volScalarField;
    location    "0.4";
    object      T;
}
// * * * * * * * * * * * * * * * * * * * * * * * * * * * * * * * * * * * * * //

dimensions      [0 0 0 1 0 0 0];

internalField   nonuniform List<scalar> 
512
(
309.800091268
309.802639202
309.806844282
309.811217547
309.814153287
309.814413017
309.811446029
309.805465454
309.797325415
309.788321566
309.779929402
309.773439871
309.769602573
309.768503931
309.769728805
309.7726171
309.776402648
309.780149357
309.782604411
309.782223601
309.777532295
309.767728312
309.753160238
309.735246976
309.715887026
309.696835829
309.679382047
309.664316578
309.65205872
309.642801389
309.636616127
309.63352323
309.399655036
309.407522332
309.420511075
309.434034009
309.443152908
309.444071796
309.435120049
309.416967274
309.392225847
309.36484844
309.339352494
309.319700467
309.308171356
309.304983933
309.308828685
309.317690278
309.3292861
309.340844542
309.348600666
309.347831304
309.333961238
309.30446481
309.260407676
309.206194399
309.147676069
309.090200521
309.037641093
308.992339867
308.955518002
308.927727776
308.909167212
308.899887857
308.997306515
309.011182058
309.034105032
309.058017127
309.074274547
309.076276445
309.061179835
309.030209196
308.987886126
308.941014949
308.897434478
308.864061951
308.844799465
308.839864714
308.84684842
308.862269536
308.882384132
308.902710943
308.916963523
308.916962733
308.894555455
308.845108151
308.770466046
308.678493302
308.579480611
308.482613069
308.394361579
308.318519064
308.256995019
308.210620883
308.17967251
308.164205973
308.591579604
308.612674356
308.647552618
308.684022795
308.70907975
308.712885874
308.691350245
308.646443708
308.584851073
308.516541789
308.45316399
308.405114803
308.378086427
308.37203009
308.383048333
308.405991051
308.435770931
308.466463632
308.489281627
308.492110089
308.462341204
308.392495116
308.285310309
308.153010863
308.011208806
307.873332716
307.748439709
307.64157755
307.555143437
307.490113226
307.44676308
307.425111776
308.180704585
308.210851563
308.26074258
308.313033353
308.349364497
308.356012437
308.327561841
308.267065519
308.183729285
308.091091207
308.005339806
307.941217665
307.906466207
307.900295517
307.916671315
307.948444262
307.989407373
308.032699505
308.067145755
308.075987139
308.040751068
307.949840436
307.80706794
307.630546011
307.442598946
307.261451231
307.098653148
306.960169832
306.848581261
306.76482113
306.709064851
306.681239463
307.762452176
307.804258522
307.873511275
307.946227325
307.997283452
308.00814648
307.972039362
307.893674001
307.785233024
307.66424603
307.552464708
307.470368247
307.42813047
307.423396479
307.446962895
307.489165541
307.5430749
307.601807826
307.652116743
307.671630747
307.633858733
307.520954827
307.338080023
307.111762836
306.873116276
306.64581004
306.443613289
306.272860245
306.135882698
306.033342509
305.965199515
305.931225629
307.333939499
307.391002917
307.485629746
307.585070794
307.65551005
307.672306693
307.627391653
307.528138502
307.390238647
307.235497118
307.092601536
306.990028427
306.940941024
306.939996955
306.973226077
307.02764962
307.096284967
307.1738295
307.245649792
307.282511468
307.246704978
307.110547641
306.880954148
306.597071698
306.301809707
306.02490238
305.781719993
305.578109431
305.415575637
305.294257779
305.21378734
305.173713144
306.891381953
306.96858674
307.096795583
307.23143932
307.327452061
307.352228944
307.296694102
307.172661637
306.999884545
306.804253749
306.623166115
306.496873804
306.442329097
306.448730174
306.494933229
306.563393302
306.648150939
306.748236076
306.848944612
306.912645625
306.885774202
306.72467031
306.43858909
306.086420719
305.727110451
305.396758033
305.111123349
304.874273106
304.686145923
304.546133637
304.453451651
304.407356488
306.429771036
306.53367873
306.706637114
306.887779407
307.017552761
307.052613478
306.983541683
306.829827012
306.615737081
306.369909277
306.140613398
305.986419262
305.929183343
305.948289052
306.011929675
306.095997206
306.197202459
306.323587232
306.462673412
306.566682864
306.559720518
306.371396614
306.014124259
305.578937083
305.146552316
304.758812242
304.429701899
304.159620431
303.946049357
303.787528857
303.68282442
303.630828611
305.942454459
306.08179347
306.314748585
306.557313823
306.731726071
306.779465519
306.692025316
306.502600495
306.240079161
305.932031926
305.639937076
305.452439736
305.397741595
305.437588548
305.524782643
305.625371897
305.741109539
305.897009721
306.086514339
306.249899251
306.280514402
306.061911096
305.6107081
305.072321318
304.556396401
304.107768635
303.735074666
303.43238362
303.193731234
303.017000445
302.90055258
302.842829963
305.420593733
305.606812715
305.920802772
306.244275756
306.478006657
306.540596791
306.4265343
306.194219516
305.876417973
305.490829375
305.113829817
304.886048902
304.843536695
304.916021176
305.035358064
305.15213348
305.276257331
305.463423007
305.718389359
305.967922782
306.0653134
305.812322119
305.230849735
304.561844186
303.951159511
303.439479487
303.024675842
302.690856802
302.427650088
302.233107545
302.105305438
302.042101414
304.852483301
305.100216875
305.524858368
305.95409826
306.267556093
306.346425724
306.191188548
305.907837657
305.530377629
305.04820286
304.551198781
304.274198805
304.261536107
304.383803285
304.547751229
304.67834909
304.797054232
305.014421557
305.353288276
305.725777827
305.939608725
305.646802373
304.874829007
304.03872572
303.323092878
302.748884509
302.295936192
301.9335707
301.646293489
301.434408756
301.295784472
301.227443538
304.222753032
304.549735624
305.128160431
305.693325619
306.116281039
306.211367136
305.988505919
305.645665634
305.211248362
304.6100659
303.934405708
303.597186257
303.646833509
303.842318107
304.069764163
304.208945579
304.294720803
304.536721819
304.981609189
305.525278675
305.942675792
305.603239039
304.53699136
303.487613297
302.661770567
302.030062955
301.546633526
301.159581524
300.848151453
300.619445731
300.470736982
300.397743997
303.511591942
303.936742402
304.735193662
305.468598099
306.047548089
306.156434902
305.816505613
305.407124574
304.934601008
304.191388641
303.233894209
302.824435237
302.996774625
303.294084318
303.615230592
303.75441837
303.754989082
304.010113645
304.587223521
305.358519873
306.137292551
305.743779912
304.197290374
302.882922786
301.954192823
301.276436055
300.775498744
300.368933949
300.031563057
299.786705211
299.628974473
299.55201225
302.694450353
303.230771394
304.358920938
305.283010174
306.096956553
306.214403685
305.662608742
305.185157831
304.726473453
303.8271777
302.397309198
301.907257681
302.316641909
302.741219848
303.207681066
303.336187057
303.153394007
303.404948736
304.146434891
305.192258965
306.627574479
306.175226754
303.802118483
302.184297721
301.186313229
300.481036681
299.983210361
299.563411975
299.19424822
298.934569678
298.769400456
298.689421614
301.743516799
302.37718091
304.034109281
305.125514999
306.321172105
306.440439933
305.490915156
304.959338224
304.629405671
303.596558565
301.326733205
300.766276691
301.633942197
302.179294978
302.886223431
302.997536405
302.445092007
302.679353974
303.631851863
304.931185715
307.592655187
307.089806697
303.220870715
301.333347204
300.347854115
299.636366824
299.174028818
298.747829145
298.332121626
298.061351443
297.891073938
297.809376723
)
;

boundaryField
{
    left
    {
        type            zeroGradient;
    }
    right
    {
        type            zeroGradient;
    }
    interface
    {
        type            fixedGradient;
        gradient        nonuniform List<scalar> 
32
(
-70.9819539994
-70.9819539994
-11.7103511496
-11.7103511496
31.6200544126
31.6200544126
-17.6221592879
-17.6221592879
5.09672654877
5.09672654877
-95.8045323518
-95.8045323518
-38.4529596158
-38.4529596158
-10.933158812
-10.933158812
-57.7921483837
-57.7921483837
-38.3272853107
-38.3272853107
112.601845903
112.601845903
-68.7156505831
-68.7156505831
-57.8691138508
-57.8691138508
-52.1870010697
-52.1870010697
-57.320806028
-57.320806028
-57.4569800453
-57.4569800453
)
;
    }
    bottom
    {
        type            fixedValue;
        value           uniform 310;
    }
    defaultFaces
    {
        type            empty;
    }
}


// ************************************************************************* //
